BEGIN_CFG
 Size
    4
 Supercell
         4.956852      0.000000      0.000000
         0.000000      4.956852      0.000000
         0.000000      0.000000      9.913704
 AtomData:  id type       cartes_x      cartes_y      cartes_z           fx          fy          fz
             1    0       0.325786      0.085897      3.374007     0.131955   -0.092955   -0.309188
             2    0       3.187300      2.361567      5.314022    -0.032503    0.177388   -0.330325
             3    0       4.556014      2.423450      8.556358    -0.037591    0.133619    0.609988
             4    0       1.844604      0.085938      7.539872    -0.061861   -0.218051    0.029525
 Energy
        -55.374596399300
 PlusStress:  xx          yy          zz          yz          xz          xy
         1.44320     2.18213     1.07530     0.09997    -0.44372    -0.00313
 Feature   EFS_by	Qe
 Feature   mindist	3.396942
END_CFG

BEGIN_CFG
 Size
    4
 Supercell
         5.263461      0.000000      0.000000
         0.000000      5.263461      0.000000
         0.000000      0.000000     10.526922
 AtomData:  id type       cartes_x      cartes_y      cartes_z           fx          fy          fz
             1    0       3.857823      3.500888      2.374881     0.217721    0.611096   -0.047623
             2    0       1.352394      1.659024      2.185110    -0.203539   -0.610932   -0.131429
             3    0       1.402191      4.321117      5.560528    -0.176579   -0.471800    0.063140
             4    0       3.914514      1.045894      5.669865     0.162397    0.471636    0.115912
 Energy
        -54.906180008500
 PlusStress:  xx          yy          zz          yz          xz          xy
         3.88293     1.81869    -0.10095     0.16977     0.01098     0.37916
 Feature   EFS_by	Qe
 Feature   mindist	3.115389
END_CFG

BEGIN_CFG
 Size
    2
 Supercell
         5.161258      0.000000      0.000000
         0.000000      5.161258      0.000000
         0.000000      0.000000      5.161258
 AtomData:  id type       cartes_x      cartes_y      cartes_z           fx          fy          fz
             1    0       0.550537      0.535787      4.784992    -0.671765   -0.676313    0.666023
             2    0       2.030092      2.044842      2.956895     0.671765    0.676313   -0.666023
 Energy
        -27.334302032000
 PlusStress:  xx          yy          zz          yz          xz          xy
         0.10162     0.16247     0.88883    -0.72321    -0.71828     0.72838
 Feature   EFS_by	Qe
 Feature   mindist	2.794328
END_CFG

BEGIN_CFG
 Size
    2
 Supercell
         4.956852      0.000000      0.000000
         0.000000      4.956852      0.000000
         0.000000      0.000000      4.956852
 AtomData:  id type       cartes_x      cartes_y      cartes_z           fx          fy          fz
             1    0       4.599652      3.688133      2.467200     0.786037   -0.041122    0.042922
             2    0       2.835626      3.747145      4.968078    -0.786037    0.041122   -0.042922
 Energy
        -27.240374586000
 PlusStress:  xx          yy          zz          yz          xz          xy
         1.40317    -1.45886     2.91145    -0.00224     0.05066    -0.03992
 Feature   EFS_by	Qe
 Feature   mindist	3.024414
END_CFG

BEGIN_CFG
 Size
    2
 Supercell
         4.956852      0.000000      0.000000
         0.000000      4.956852      0.000000
         0.000000      0.000000      4.956852
 AtomData:  id type       cartes_x      cartes_y      cartes_z           fx          fy          fz
             1    0      -0.000988      1.982172      0.779874     0.003632    0.784470   -0.581101
             2    0       2.479414      0.496254      1.698552    -0.003632   -0.784470    0.581101
 Energy
        -27.299395266000
 PlusStress:  xx          yy          zz          yz          xz          xy
         2.76418     0.51584    -0.72127    -0.58003    -0.00280     0.00403
 Feature   EFS_by	Qe
 Feature   mindist	3.030631
END_CFG

BEGIN_CFG
 Size
    1
 Supercell
         2.555084      2.555089      2.555093
        -2.555102      2.555106      2.555111
        -2.555115     -2.555120      2.555129
 AtomData:  id type       cartes_x      cartes_y      cartes_z           fx          fy          fz
             1    0       0.000000      0.000000      0.000000     0.000000    0.000000    0.000000
 Energy
        -13.988890825100
 PlusStress:  xx          yy          zz          yz          xz          xy
         0.00447     0.00453     0.00447     0.00000     0.00000     0.00000
 Feature   EFS_by	Qe
 Feature   mindist	4.425543
END_CFG

BEGIN_CFG
 Size
    2
 Supercell
         5.416770      0.000000      0.000000
         0.000000      5.416770      0.000000
         0.000000      0.000000      5.416775
 AtomData:  id type       cartes_x      cartes_y      cartes_z           fx          fy          fz
             1    0       0.000000      0.000000      0.000000     0.000000    0.000000    0.000000
             2    0       2.708385      2.708386      2.708403     0.000000    0.000000    0.000000
 Energy
        -27.940525045000
 PlusStress:  xx          yy          zz          yz          xz          xy
        -0.49163    -0.49163    -0.49163     0.00000     0.00000     0.00000
 Feature   EFS_by	Qe
 Feature   mindist	4.691052
END_CFG

BEGIN_CFG
 Size
    1
 Supercell
         2.427325      2.427325      2.427325
        -2.427329      2.427329      2.427329
        -2.427329     -2.427329      2.427329
 AtomData:  id type       cartes_x      cartes_y      cartes_z           fx          fy          fz
             1    0       0.000000      0.000000      0.000000     0.000000    0.000000    0.000000
 Energy
        -13.966802118600
 PlusStress:  xx          yy          zz          yz          xz          xy
         0.29598     0.29608     0.29603     0.00005     0.00000    -0.00000
 Feature   EFS_by	Qe
 Feature   mindist	4.204251
END_CFG

BEGIN_CFG
 Size
    2
 Supercell
         5.365664      0.000000      0.000000
         0.000000      5.365664      0.000000
         0.000000      0.000000      5.365664
 AtomData:  id type       cartes_x      cartes_y      cartes_z           fx          fy          fz
             1    0       1.853720     -0.002546      3.510630     0.635830    0.011052   -0.637268
             2    0       0.829112      2.685378      4.537866    -0.635830   -0.011052    0.637268
 Energy
        -27.068836321500
 PlusStress:  xx          yy          zz          yz          xz          xy
        -0.62848     3.05047    -0.62479    -0.01021    -0.58351     0.01021
 Feature   EFS_by	Qe
 Feature   mindist	3.045542
END_CFG

BEGIN_CFG
 Size
    2
 Supercell
         5.212364      0.000000      0.000000
         0.000000      5.212364      0.000000
         0.000000      0.000000      5.212370
 AtomData:  id type       cartes_x      cartes_y      cartes_z           fx          fy          fz
             1    0       0.000000      0.000000      0.000000     0.000000    0.000000    0.000000
             2    0       2.606183      2.606183      2.606200     0.000000    0.000000    0.000000
 Energy
        -27.980363602600
 PlusStress:  xx          yy          zz          yz          xz          xy
        -0.18138    -0.18138    -0.18138     0.00000     0.00000     0.00000
 Feature   EFS_by	Qe
 Feature   mindist	4.514032
END_CFG

BEGIN_CFG
 Size
    2
 Supercell
         5.365664      0.000000      0.000000
         0.000000      5.365664      0.000000
         0.000000      0.000000      5.365664
 AtomData:  id type       cartes_x      cartes_y      cartes_z           fx          fy          fz
             1    0       0.400930      0.302205      0.928631    -0.685293   -0.630320   -0.408960
             2    0       2.281902      2.380627      1.754201     0.685293    0.630320    0.408960
 Energy
        -27.308492576500
 PlusStress:  xx          yy          zz          yz          xz          xy
         0.72407     1.17015    -0.90761     0.46820     0.50891     0.79145
 Feature   EFS_by	Qe
 Feature   mindist	2.922235
END_CFG

BEGIN_CFG
 Size
    1
 Supercell
         2.171817      2.171817      2.171817
        -2.171821      2.171821      2.171821
        -2.171821     -2.171821      2.171821
 AtomData:  id type       cartes_x      cartes_y      cartes_z           fx          fy          fz
             1    0       0.000000      0.000000      0.000000     0.000000    0.000000    0.000000
 Energy
        -13.722442783600
 PlusStress:  xx          yy          zz          yz          xz          xy
         1.25686     1.25705     1.25693     0.00008     0.00004    -0.00000
 Feature   EFS_by	Qe
 Feature   mindist	3.761698
END_CFG

BEGIN_CFG
 Size
    2
 Supercell
         4.854649      0.000000      0.000000
         0.000000      4.854649      0.000000
         0.000000      0.000000      4.854649
 AtomData:  id type       cartes_x      cartes_y      cartes_z           fx          fy          fz
             1    0       4.856100      0.000227      0.212748    -0.001637   -0.000210   -0.221531
             2    0       2.425873      2.427098      2.214577     0.001637    0.000210    0.221531
 Energy
        -28.084843215900
 PlusStress:  xx          yy          zz          yz          xz          xy
         0.33941     0.33962     0.10925     0.00021     0.00095    -0.00011
 Feature   EFS_by	Qe
 Feature   mindist	3.971755
END_CFG

BEGIN_CFG
 Size
    1
 Supercell
         2.299571      2.299571      2.299571
        -2.299575      2.299575      2.299575
        -2.299575     -2.299575      2.299575
 AtomData:  id type       cartes_x      cartes_y      cartes_z           fx          fy          fz
             1    0       0.000000      0.000000      0.000000     0.000000    0.000000    0.000000
 Energy
        -13.887733586000
 PlusStress:  xx          yy          zz          yz          xz          xy
         0.69781     0.69768     0.69786     0.00004    -0.00004     0.00004
 Feature   EFS_by	Qe
 Feature   mindist	3.982974
END_CFG

BEGIN_CFG
 Size
    1
 Supercell
         3.193853      3.193858      3.193864
        -3.193869      3.193875      3.193880
        -3.193886     -3.193891      3.193897
 AtomData:  id type       cartes_x      cartes_y      cartes_z           fx          fy          fz
             1    0       0.000000      0.000000      0.000000     0.000000    0.000000    0.000000
 Energy
        -13.737094482300
 PlusStress:  xx          yy          zz          yz          xz          xy
        -0.61299    -0.61299    -0.61299    -0.00000     0.00000     0.00012
 Feature   EFS_by	Qe
 Feature   mindist	5.531924
END_CFG

BEGIN_CFG
 Size
    2
 Supercell
         5.365664      0.000000      0.000000
         0.000000      5.365664      0.000000
         0.000000      0.000000      5.365664
 AtomData:  id type       cartes_x      cartes_y      cartes_z           fx          fy          fz
             1    0       0.352052      5.355172      5.363287    -0.184528    0.007655    0.001755
             2    0       2.330780      2.693325      2.685209     0.184528   -0.007655   -0.001755
 Energy
        -27.987676118400
 PlusStress:  xx          yy          zz          yz          xz          xy
        -0.65571    -0.42069    -0.42040     0.00000    -0.00199    -0.00851
 Feature   EFS_by	Qe
 Feature   mindist	4.262968
END_CFG

BEGIN_CFG
 Size
    2
 Supercell
         4.956852      0.000000      0.000000
         0.000000      4.956852      0.000000
         0.000000      0.000000      4.956852
 AtomData:  id type       cartes_x      cartes_y      cartes_z           fx          fy          fz
             1    0       0.677753      0.326388      4.659073    -0.591556   -0.635514    0.613214
             2    0       1.800672      2.152037      2.776205     0.591556    0.635514   -0.613214
 Energy
        -27.423690482600
 PlusStress:  xx          yy          zz          yz          xz          xy
        -0.45524     1.14295     1.28519    -0.60083    -0.52870     0.54604
 Feature   EFS_by	Qe
 Feature   mindist	2.852917
END_CFG

BEGIN_CFG
 Size
    1
 Supercell
         2.555084      2.555089      2.555093
        -2.555102      2.555106      2.555111
        -2.555115     -2.555120      2.555129
 AtomData:  id type       cartes_x      cartes_y      cartes_z           fx          fy          fz
             1    0       0.000000      0.000000      0.000000     0.000000    0.000000    0.000000
 Energy
        -13.988890825100
 PlusStress:  xx          yy          zz          yz          xz          xy
         0.00447     0.00453     0.00447     0.00000     0.00000     0.00000
 Feature   EFS_by	Qe
 Feature   mindist	4.425543
END_CFG

BEGIN_CFG
 Size
    2
 Supercell
         5.263461      0.000000      0.000000
         0.000000      5.263461      0.000000
         0.000000      0.000000      5.263461
 AtomData:  id type       cartes_x      cartes_y      cartes_z           fx          fy          fz
             1    0       0.189313      0.421002      0.750907    -0.386576   -0.558413   -0.456001
             2    0       2.442417      2.210728      1.880824     0.386576    0.558413    0.456001
 Energy
        -27.509954794100
 PlusStress:  xx          yy          zz          yz          xz          xy
         1.11955     0.29026    -0.67317     0.52885     0.36859     0.46016
 Feature   EFS_by	Qe
 Feature   mindist	3.091328
END_CFG

BEGIN_CFG
 Size
    4
 Supercell
         4.854649      0.000000      0.000000
         0.000000      4.854649      0.000000
         0.000000      0.000000      9.709298
 AtomData:  id type       cartes_x      cartes_y      cartes_z           fx          fy          fz
             1    0       1.735758      2.496274      2.463787     0.252842   -0.021535   -0.028571
             2    0       0.181138      4.888483      5.168696    -0.107527   -0.039340   -0.128915
             3    0       0.232064     -0.004730      9.345393    -0.105911   -0.023460    0.175787
             4    0       2.705689      2.329270      7.295367    -0.039403    0.084334   -0.018301
 Energy
        -56.052966592900
 PlusStress:  xx          yy          zz          yz          xz          xy
         0.24497     0.89123     0.98263    -0.00126    -0.05084    -0.03046
 Feature   EFS_by	Qe
 Feature   mindist	3.901424
END_CFG

BEGIN_CFG
 Size
    1
 Supercell
         2.555086      3.066094      3.066094
        -2.555101      2.555106      2.555111
        -2.555116     -2.555121      2.555126
 AtomData:  id type       cartes_x      cartes_y      cartes_z           fx          fy          fz
             1    0       0.000000      0.000000      0.000000     0.000000    0.000000    0.000000
 Energy
        -13.970625454400
 PlusStress:  xx          yy          zz          yz          xz          xy
        -0.13087    -0.14496    -0.11227    -0.08875    -0.10358    -0.07029
 Feature   EFS_by	Qe
 Feature   mindist	4.425574
END_CFG

BEGIN_CFG
 Size
    2
 Supercell
         5.416770      0.000000      0.000000
         0.000000      5.416770      0.000000
         0.000000      0.000000      5.416775
 AtomData:  id type       cartes_x      cartes_y      cartes_z           fx          fy          fz
             1    0       0.000000      0.000000      0.000000     0.000000    0.000000    0.000000
             2    0       2.708385      2.708386      2.708403     0.000000    0.000000    0.000000
 Energy
        -27.940525045000
 PlusStress:  xx          yy          zz          yz          xz          xy
        -0.49163    -0.49163    -0.49163     0.00000     0.00000     0.00000
 Feature   EFS_by	Qe
 Feature   mindist	4.691052
END_CFG

BEGIN_CFG
 Size
    1
 Supercell
         2.555086      4.599144      4.599144
        -2.555100      2.555107      2.555114
        -2.555114     -2.555121      2.555128
 AtomData:  id type       cartes_x      cartes_y      cartes_z           fx          fy          fz
             1    0       0.000000      0.000000      0.000000     0.000000    0.000000    0.000000
 Energy
        -13.850393577900
 PlusStress:  xx          yy          zz          yz          xz          xy
        -0.31014    -0.23526    -0.23801    -0.01964    -0.26477    -0.00635
 Feature   EFS_by	Qe
 Feature   mindist	4.425575
END_CFG

BEGIN_CFG
 Size
    2
 Supercell
         5.365664      0.000000      0.000000
         0.000000      5.365664      0.000000
         0.000000      0.000000      5.365664
 AtomData:  id type       cartes_x      cartes_y      cartes_z           fx          fy          fz
             1    0       0.224403      0.182130      0.533471    -0.209605   -0.177960   -0.291395
             2    0       2.458430      2.500702      2.149361     0.209605    0.177960    0.291395
 Energy
        -27.831514191800
 PlusStress:  xx          yy          zz          yz          xz          xy
        -0.12992    -0.06893    -0.62224     0.20850     0.24623     0.14411
 Feature   EFS_by	Qe
 Feature   mindist	3.602465
END_CFG

BEGIN_CFG
 Size
    2
 Supercell
         4.854649      0.000000      0.000000
         0.000000      4.854649      0.000000
         0.000000      0.000000      4.854649
 AtomData:  id type       cartes_x      cartes_y      cartes_z           fx          fy          fz
             1    0       0.304688      4.894584      0.323007    -0.349288   -0.058532   -0.360373
             2    0       2.122637      2.387389      2.104317     0.349288    0.058532    0.360373
 Energy
        -27.911801930500
 PlusStress:  xx          yy          zz          yz          xz          xy
         0.25033     0.79522     0.19466     0.04402     0.25968     0.04265
 Feature   EFS_by	Qe
 Feature   mindist	3.462448
END_CFG

BEGIN_CFG
 Size
    2
 Supercell
         5.263461      0.000000      0.000000
         0.000000      5.263461      0.000000
         0.000000      0.000000      5.263461
 AtomData:  id type       cartes_x      cartes_y      cartes_z           fx          fy          fz
             1    0       4.987698     -0.000222     -0.001465     0.171915    0.000178    0.001188
             2    0       2.907493      2.631953      2.633196    -0.171915   -0.000178   -0.001188
 Energy
        -28.039515305400
 PlusStress:  xx          yy          zz          yz          xz          xy
        -0.53259    -0.35292    -0.35279    -0.00000     0.00107     0.00013
 Feature   EFS_by	Qe
 Feature   mindist	4.261632
END_CFG

BEGIN_CFG
 Size
    4
 Supercell
         5.365664      0.000000      0.000000
         0.000000      5.365664      0.000000
         0.000000      0.000000     10.731328
 AtomData:  id type       cartes_x      cartes_y      cartes_z           fx          fy          fz
             1    0       2.530777      2.482734      4.969108     0.173410   -0.093720   -0.254135
             2    0       5.395634      5.015812      5.410417    -0.134113    0.261973   -0.333810
             3    0       2.761138      0.356828      8.423294    -0.024243   -0.121587    0.222376
             4    0       0.043780      2.875954      8.025503    -0.015054   -0.046666    0.365569
 Energy
        -55.201840017100
 PlusStress:  xx          yy          zz          yz          xz          xy
         2.05890     2.27506     1.35964    -0.44452    -0.18978    -0.08255
 Feature   EFS_by	Qe
 Feature   mindist	3.379032
END_CFG

BEGIN_CFG
 Size
    2
 Supercell
         5.059055      0.000000      0.000000
         0.000000      5.059055      0.000000
         0.000000      0.000000      5.059055
 AtomData:  id type       cartes_x      cartes_y      cartes_z           fx          fy          fz
             1    0       0.661159      0.405070      4.738697    -0.612013   -0.678162    0.634636
             2    0       1.868368      2.124457      2.849885     0.612013    0.678162   -0.634636
 Energy
        -27.381686034800
 PlusStress:  xx          yy          zz          yz          xz          xy
        -0.36141     0.74457     1.16257    -0.67241    -0.59442     0.63187
 Feature   EFS_by	Qe
 Feature   mindist	2.825112
END_CFG

BEGIN_CFG
 Size
    1
 Supercell
         2.044064      2.044064      2.044064
        -2.044067      2.044067      2.044067
        -2.044067     -2.044067      2.044067
 AtomData:  id type       cartes_x      cartes_y      cartes_z           fx          fy          fz
             1    0       0.000000      0.000000      0.000000     0.000000    0.000000    0.000000
 Energy
        -13.426178274100
 PlusStress:  xx          yy          zz          yz          xz          xy
         2.03698     2.03698     2.03695     0.00000     0.00006     0.00006
 Feature   EFS_by	Qe
 Feature   mindist	3.540422
END_CFG

BEGIN_CFG
 Size
    1
 Supercell
         2.555087      4.088125      4.088131
        -2.555099      2.555106      2.555112
        -2.555118     -2.555118      2.555125
 AtomData:  id type       cartes_x      cartes_y      cartes_z           fx          fy          fz
             1    0       0.000000      0.000000      0.000000     0.000000    0.000000    0.000000
 Energy
        -13.889475250800
 PlusStress:  xx          yy          zz          yz          xz          xy
        -0.30208    -0.23192    -0.21926    -0.05193    -0.23335    -0.01107
 Feature   EFS_by	Qe
 Feature   mindist	4.425573
END_CFG

BEGIN_CFG
 Size
    2
 Supercell
         5.621175      0.000000      0.000000
         0.000000      5.621175      0.000000
         0.000000      0.000000      5.621180
 AtomData:  id type       cartes_x      cartes_y      cartes_z           fx          fy          fz
             1    0       0.000000      0.000000      0.000000     0.000000    0.000000    0.000000
             2    0       2.810588      2.810589      2.810607     0.000000    0.000000    0.000000
 Energy
        -27.871577107300
 PlusStress:  xx          yy          zz          yz          xz          xy
        -0.73386    -0.73386    -0.73386     0.00000     0.00000     0.00000
 Feature   EFS_by	Qe
 Feature   mindist	4.868071
END_CFG

BEGIN_CFG
 Size
    1
 Supercell
         1.916316      1.916319      1.916326
        -1.916329      1.916336      1.916342
        -1.916346     -1.916352      1.916356
 AtomData:  id type       cartes_x      cartes_y      cartes_z           fx          fy          fz
             1    0       0.000000      0.000000      0.000000     0.000000    0.000000    0.000000
 Energy
        -12.934274239300
 PlusStress:  xx          yy          zz          yz          xz          xy
         3.07321     3.07300     3.07303     0.00000    -0.00003     0.00008
 Feature   EFS_by	Qe
 Feature   mindist	3.319164
END_CFG

BEGIN_CFG
 Size
    2
 Supercell
         4.854649      0.000000      0.000000
         0.000000      4.854649      0.000000
         0.000000      0.000000      4.854649
 AtomData:  id type       cartes_x      cartes_y      cartes_z           fx          fy          fz
             1    0       0.000497      0.629664      0.335275    -0.001323   -0.528596   -0.530093
             2    0       2.426827      1.797660      2.092050     0.001323    0.528596    0.530093
 Energy
        -27.604233811100
 PlusStress:  xx          yy          zz          yz          xz          xy
         1.76503    -0.43669     0.79490     0.43186     0.00137     0.00116
 Feature   EFS_by	Qe
 Feature   mindist	3.215206
END_CFG

BEGIN_CFG
 Size
    4
 Supercell
         4.854649      0.000000      0.000000
         0.000000      4.854649      0.000000
         0.000000      0.000000      9.709298
 AtomData:  id type       cartes_x      cartes_y      cartes_z           fx          fy          fz
             1    0       2.316456      2.445110      2.928224     0.165052   -0.015590   -0.396319
             2    0       0.322207      4.790308      5.073942    -0.375296    0.022449   -0.129873
             3    0       4.806625      0.117873      9.415418    -0.047222   -0.049882    0.172874
             4    0       2.264009      2.356006      6.855658     0.257466    0.043024    0.353318
 Energy
        -55.982086782700
 PlusStress:  xx          yy          zz          yz          xz          xy
         0.53008     0.98284     1.12885    -0.00777    -0.02899    -0.00756
 Feature   EFS_by	Qe
 Feature   mindist	3.578154
END_CFG

BEGIN_CFG
 Size
    2
 Supercell
         5.161258      0.000000      0.000000
         0.000000      5.161258      0.000000
         0.000000      0.000000      5.161258
 AtomData:  id type       cartes_x      cartes_y      cartes_z           fx          fy          fz
             1    0       0.558616      0.007805      5.158829    -0.315873   -0.009020    0.002816
             2    0       2.022013      2.572824      2.583058     0.315873    0.009020   -0.002816
 Energy
        -27.907340895800
 PlusStress:  xx          yy          zz          yz          xz          xy
        -0.61957     0.24351     0.24389    -0.00000    -0.00278     0.00934
 Feature   EFS_by	Qe
 Feature   mindist	3.918603
END_CFG

BEGIN_CFG
 Size
    4
 Supercell
         5.059055      0.000000      0.000000
         0.000000      5.059055      0.000000
         0.000000      0.000000     10.118110
 AtomData:  id type       cartes_x      cartes_y      cartes_z           fx          fy          fz
             1    0       5.129339      2.210759      4.453110     0.275289    0.600457   -0.510676
             2    0       2.921143      0.268409      4.983205    -0.245492   -0.764495   -0.179442
             3    0       0.055459      0.132200      8.442807    -0.393198   -0.255785    0.412456
             4    0       2.012170      2.447688      7.416152     0.363402    0.419824    0.277662
 Energy
        -54.729875533600
 PlusStress:  xx          yy          zz          yz          xz          xy
         3.28359     3.42839     1.40498    -0.16668    -0.63175     0.56470
 Feature   EFS_by	Qe
 Feature   mindist	2.988286
END_CFG

BEGIN_CFG
 Size
    2
 Supercell
         5.365664      0.000000      0.000000
         0.000000      5.365664      0.000000
         0.000000      0.000000      5.365664
 AtomData:  id type       cartes_x      cartes_y      cartes_z           fx          fy          fz
             1    0       0.698006      5.369143      0.548426    -0.430262   -0.006880   -0.481913
             2    0       1.984827      2.679353      2.134407     0.430262    0.006880    0.481913
 Energy
        -27.528653370100
 PlusStress:  xx          yy          zz          yz          xz          xy
        -0.60890     1.07838    -0.26467     0.00823     0.51430     0.00738
 Feature   EFS_by	Qe
 Feature   mindist	3.366236
END_CFG

BEGIN_CFG
 Size
    1
 Supercell
         2.938341      2.938341      2.938341
        -2.938341      2.938346      2.938346
        -2.938346     -2.938346      2.938346
 AtomData:  id type       cartes_x      cartes_y      cartes_z           fx          fy          fz
             1    0       0.000000      0.000000      0.000000     0.000000    0.000000    0.000000
 Energy
        -13.875878673600
 PlusStress:  xx          yy          zz          yz          xz          xy
        -0.47806    -0.47806    -0.47797     0.00000     0.00000    -0.00000
 Feature   EFS_by	Qe
 Feature   mindist	5.089356
END_CFG

BEGIN_CFG
 Size
    2
 Supercell
         4.854649      0.000000      0.000000
         0.000000      4.854649      0.000000
         0.000000      0.000000      4.854649
 AtomData:  id type       cartes_x      cartes_y      cartes_z           fx          fy          fz
             1    0       0.455193      4.512914      4.490470    -0.641746    0.609780    0.621212
             2    0       1.972131      2.769059      2.791503     0.641746   -0.609780   -0.621212
 Energy
        -27.527606139900
 PlusStress:  xx          yy          zz          yz          xz          xy
         0.40549     0.95973     0.84953     0.56768    -0.58271    -0.57462
 Feature   EFS_by	Qe
 Feature   mindist	2.868558
END_CFG

BEGIN_CFG
 Size
    2
 Supercell
         5.059055      0.000000      0.000000
         0.000000      5.059055      0.000000
         0.000000      0.000000      5.059055
 AtomData:  id type       cartes_x      cartes_y      cartes_z           fx          fy          fz
             1    0       0.199809      0.185113      0.753888    -0.346248   -0.327690   -0.408740
             2    0       2.329718      2.344415      1.775639     0.346248    0.327690    0.408740
 Energy
        -27.641415993200
 PlusStress:  xx          yy          zz          yz          xz          xy
         0.95215     0.99506    -0.80544     0.26606     0.28069     0.24526
 Feature   EFS_by	Qe
 Feature   mindist	3.200480
END_CFG

BEGIN_CFG
 Size
    2
 Supercell
         4.803548      0.000000      0.000000
         0.000000      4.803548      0.000000
         0.000000      0.000000      4.803553
 AtomData:  id type       cartes_x      cartes_y      cartes_z           fx          fy          fz
             1    0       0.000000      0.000000      0.000000     0.000000    0.000000    0.000000
             2    0       2.401775      2.401775      2.401791     0.000000    0.000000    0.000000
 Energy
        -27.921971777800
 PlusStress:  xx          yy          zz          yz          xz          xy
         0.72834     0.72834     0.72834     0.00000     0.00000     0.00000
 Feature   EFS_by	Qe
 Feature   mindist	4.159987
END_CFG

BEGIN_CFG
 Size
    2
 Supercell
         5.161258      0.000000      0.000000
         0.000000      5.161258      0.000000
         0.000000      0.000000      5.161258
 AtomData:  id type       cartes_x      cartes_y      cartes_z           fx          fy          fz
             1    0       0.060196      1.111767      5.155190    -0.106417   -0.142443    0.010892
             2    0       2.520433      1.468862      2.586697     0.106417    0.142443   -0.010892
 Energy
        -27.599211133500
 PlusStress:  xx          yy          zz          yz          xz          xy