BEGIN_CFG
 Size
    2
 Supercell
    4.8546489750926245     0.0      0.0 
    0.0     4.8546489750926245      0.0 
    0.0     0.0      4.8546489750926245 
 AtomData:  id type    cartes_x    cartes_y    cartes_z    fx    fy    fz
    1    0   0.1220468461636236    -0.11828983332179942    -0.044219055654528674    -0.13453298302546998    0.13071720853702087    0.05032986238547883
    2    0   2.305277155917791    2.545613835403214    2.4715440286657384    0.13453298302546998    -0.13071720853702087    -0.05032986238547883
 Energy
    -28.0992208959
 PlusStress:  xx          yy          zz          yz          xz          xy
    0.22217804446008943   0.2268001881746256    0.29045971297028245    0.01680779532558596    -0.017333038929510526    -0.04517094993751228
 Feature EFS_by Qe
END_CFG

BEGIN_CFG
 Size
    4
 Supercell
    4.8546489750926245     0.0      0.0 
    0.0     4.8546489750926245      0.0 
    0.0     0.0      9.709297950185249 
 AtomData:  id type    cartes_x    cartes_y    cartes_z    fx    fy    fz
    1    0   2.3700828360160977    2.4570048404502334    2.073115219841527    -0.12500935908997754    -0.15958632833262307    0.24626927815805263
    2    0   4.56812904897735    4.462068076423809    4.840714190674518    0.24860898221066952    0.27975738513005727    -0.21966247220409615
    3    0   4.672798193669733    4.747274819991321    0.275319765464838    0.2223706153674163    0.21599505037920305    -0.12227061979673852
    4    0   2.9529358756848985    2.897596761088022    7.3747967783671955    -0.34596998137777285    -0.33616610717663725    0.09566381384278203
 Energy
    -55.8927305775
 PlusStress:  xx          yy          zz          yz          xz          xy
    0.587852641512369   0.5718852359530624    1.2254983766767864    -0.12689885470817402    -0.15526200932010034    0.32312986513439007
 Feature EFS_by Qe
END_CFG

BEGIN_CFG
 Size
    2
 Supercell
    4.8546489750926245     0.0      0.0 
    0.0     4.8546489750926245      0.0 
    0.0     0.0      4.8546489750926245 
 AtomData:  id type    cartes_x    cartes_y    cartes_z    fx    fy    fz
    1    0   0.036048195964550285    -0.02473686385258447    -0.007528104165676132    -0.03939161738432725    0.027067290564751753    0.008166852695310136
    2    0   2.3912758061168646    2.452060865933999    2.4348521062470905    0.03939161738432725    -0.027067290564751753    -0.008166852695310136
 Energy
    -28.1309712772
 PlusStress:  xx          yy          zz          yz          xz          xy
    0.20925705180354523   0.21272365958944733    0.2158751212129947    0.0005252436039245613    -0.0009454384870642104    -0.0028363154611926317
 Feature EFS_by Qe
END_CFG

BEGIN_CFG
 Size
    6
 Supercell
    4.8546489750926245     0.0      0.0 
    0.0     4.8546489750926245      0.0 
    0.0     0.0      14.563946925277873 
 AtomData:  id type    cartes_x    cartes_y    cartes_z    fx    fy    fz
    1    0   1.6348481905979095    3.7751109732033274    3.033164775577074    0.05324266537581912    -0.2660240936722026    -0.19542133844663723
    2    0   4.335561749711665    1.3582919460391156    0.5700241442872208    -0.10686508271710143    0.0724657767162535    -0.0813641083159257
    3    0   4.014603914696879    0.7217508578898681    4.888531997614283    -0.012952190258750265    0.3223538828457987    0.10490590196095412
    4    0   1.4650311130544773    3.8668148068779296    7.539252867047432    0.09033057415449283    0.0968382938551286    -0.2028006621844566
    5    0   3.96445393438948    1.784086896600822    8.63532871613528    -0.06346125854803943    -0.09474592994521695    0.36247955023784256
    6    0   1.5767720249088766    0.6305669571204985    11.743561899744007    0.03970529199357918    -0.13088792979976127    0.012200913858558343
 Energy
    -83.6467089181
 PlusStress:  xx          yy          zz          yz          xz          xy
    2.3223120703920554   0.8036227140045789    1.6759472914024904    0.024896546826024206    0.0063029232470947355    0.01953906206599368
 Feature EFS_by Qe
END_CFG

BEGIN_CFG
 Size
    4
 Supercell
    5.05905478539433     0.0      0.0 
    0.0     5.05905478539433      0.0 
    0.0     0.0      10.11810957078866 
 AtomData:  id type    cartes_x    cartes_y    cartes_z    fx    fy    fz
    1    0   -0.07313015463931066    5.028675667313515    9.969604558901759    -0.021935625379457237    -0.0027901613603294796    0.017652167190820196
    2    0   2.2954798352549886    2.4164200812381895    2.4616561255072718    0.09823877385233784    0.046811050334477244    0.041383965373747916
    3    0   0.31019999141028165    0.10226676886483221    5.414255575026172    -0.17220093272092432    -0.0520915824039987    -0.1816289116116285
    4    0   2.52650511336837    2.570747053372122    7.449756655725489    0.09589778424804371    0.008070950540186389    0.12259277904706038
 Energy
    -56.1734382017
 PlusStress:  xx          yy          zz          yz          xz          xy
    -0.32265266783788915   -0.16738944595274427    -0.2123278057326713    0.026630139128845678    0.11246478399950004    0.04303620698500953
 Feature EFS_by Qe
END_CFG

BEGIN_CFG
 Size
    4
 Supercell
    4.8546489750926245     0.0      0.0 
    0.0     4.8546489750926245      0.0 
    0.0     0.0      9.709297950185249 
 AtomData:  id type    cartes_x    cartes_y    cartes_z    fx    fy    fz
    1    0   2.5553270170725795    2.543832179229355    2.9428197581506006    -0.13789418644083926    -0.0038777380792931453    -0.3694824644445597
    2    0   0.02137210664794777    0.04267187902616666    9.118850783124712    0.0419118128924317    -0.12434138643847219    0.4280830521008714
    3    0   4.63742673577231    0.08428010446189052    5.004719767929868    0.22355435135183918    -0.10186557224422944    -0.03622941736859814
    4    0   2.4951701488328215    2.1838638414454175    7.206852138933455    -0.12757172069309616    0.23008469676199475    -0.022370913177378153
 Energy
    -55.966961878
 PlusStress:  xx          yy          zz          yz          xz          xy
    0.9191763068679822   0.9191763068679822    0.8935444189964639    -0.03928822157355719    0.09811550521310805    -0.047482021794780345
 Feature EFS_by Qe
END_CFG

BEGIN_CFG
 Size
    2
 Supercell
    4.956852144832083     0.0      0.0 
    0.0     4.956852144832083      0.0 
    0.0     0.0      4.956852144832083 
 AtomData:  id type    cartes_x    cartes_y    cartes_z    fx    fy    fz
    1    0   0.17980386333121    4.794291187371885    4.760319896882494    -0.18835440376639248    0.17286299183471426    0.20262865537003902
    2    0   2.298622209084831    2.640987029876239    2.674956833309987    0.18835440376639248    -0.17286299183471426    -0.20262865537003902
 Energy
    -28.0410474425
 PlusStress:  xx          yy          zz          yz          xz          xy
    0.10578553829736259   0.13318242717987194    0.07727040905230184    0.09751055961448221    -0.10656830655114857    -0.09046564533040839
 Feature EFS_by Qe
END_CFG

BEGIN_CFG
 Size
    4
 Supercell
    5.365663765435493     0.0      0.0 
    0.0     5.365663765435493      0.0 
    0.0     0.0      10.731327530870987 
 AtomData:  id type    cartes_x    cartes_y    cartes_z    fx    fy    fz
    1    0   2.661738921889443    2.9125756544279042    3.5005230906228872    0.17285167897995435    -0.07556138515510043    -0.34582419981757134
    2    0   5.4338506205666475    5.308364915217161    10.651662447812813    -0.03938801783963091    -0.00026945163155411855    0.039462322726576654
    3    0   0.3748962444590952    0.03280083916448371    5.20458653919712    -0.31936368964448725    0.011181214268154112    0.03452271896186508
    4    0   2.2608417439558006    2.477586122061438    7.471548895810153    0.18590002850416382    0.06464936540816499    0.2718391581291296
 Energy
    -55.8228015332
 PlusStress:  xx          yy          zz          yz          xz          xy
    -0.9182487127841762   -0.5608210395966378    -0.4487703007799095    0.12226295805065801    -0.06070596989058193    0.04056520417922064
 Feature EFS_by Qe
END_CFG

BEGIN_CFG
 Size
    4
 Supercell
    4.8546489750926245     0.0      0.0 
    0.0     4.8546489750926245      0.0 
    0.0     0.0      9.709297950185249 
 AtomData:  id type    cartes_x    cartes_y    cartes_z    fx    fy    fz
    1    0   0.47028683748863537    3.7815060022982165    3.514594003393342    -0.2065475311030045    0.0026163547735636554    -0.30322153145377906
    2    0   2.076697950785145    0.3570958419853757    0.3225020988537632    0.027501292810995406    0.10122511039861751    -0.16595726533479815
    3    0   2.7171188743952865    1.4794047577399314    3.8027329549418094    0.19653873996451335    -0.022324119096325815    0.29274068573939727
    4    0   4.445192831121489    4.091289891767032    6.9241168971591645    -0.017492501672504254    -0.08151760318619079    0.17643811104917992
 Energy
    -55.4136379354
 PlusStress:  xx          yy          zz          yz          xz          xy
    1.646323552141145   1.367104052294848    1.4883302760806372    0.33090347047247365    -0.19244925647795927    -0.0004201948831396491
 Feature EFS_by Qe
END_CFG

BEGIN_CFG
 Size
    2
 Supercell
    4.956852144832083     0.0      0.0 
    0.0     4.956852144832083      0.0 
    0.0     0.0      4.956852144832083 
 AtomData:  id type    cartes_x    cartes_y    cartes_z    fx    fy    fz
    1    0   0.2678221911817788    4.887745199284478    4.95805814695892    -0.24473998588278176    0.0748841565315188    -0.0013261751102634958
    2    0   2.2106028898638335    2.5475330179636466    2.477219078918775    0.24473998588278176    -0.0748841565315188    0.0013261751102634958
 Energy
    -28.0667971689
 PlusStress:  xx          yy          zz          yz          xz          xy
    -0.11596152559658035   0.16997253510781304    0.19390287886641305    -0.00033547210876542046    0.0008945922900411214    -0.05367553740246728
 Feature EFS_by Qe
END_CFG

BEGIN_CFG
 Size
    2
 Supercell
    5.263461124873246     0.0      0.0 
    0.0     5.263461124873246      0.0 
    0.0     0.0      5.263461124873246 
 AtomData:  id type    cartes_x    cartes_y    cartes_z    fx    fy    fz
    1    0   5.22302721651197    0.4064892074822735    0.4085598530887986    0.04677814021153934    -0.313633728708595    -0.31402222242546357
    2    0   2.6721649971440122    2.2252408286082375    2.223171235693937    -0.04677814021153934    0.313633728708595    0.31402222242546357
 Energy
    -27.846903183
 PlusStress:  xx          yy          zz          yz          xz          xy
    0.21742904256606396   -0.3448874468289291    -0.34863622342489564    0.3419419795035267    -0.04953740501813034    -0.04953740501813034
 Feature EFS_by Qe
END_CFG

BEGIN_CFG
 Size
    4
 Supercell
    5.161257955133788     0.0      0.0 
    0.0     5.161257955133788      0.0 
    0.0     0.0      10.322515910267576 
 AtomData:  id type    cartes_x    cartes_y    cartes_z    fx    fy    fz
    1    0   2.472779847462214    1.9593410028402776    3.1095397251609347    0.028804327991068187    0.18286715498716727    -0.19375192103854477
    2    0   5.105655723183132    4.948891803060262    5.105607207358354    0.024271215666706862    -0.09291890390149217    0.12272699064216654
    3    0   0.010599159336662747    0.8149750181347174    9.976123759992522    0.03137774533861129    -0.21976043124190353    0.164145923021536
    4    0   2.7334801480339768    2.599308086232319    7.615019083157129    -0.08445328899638635    0.12981218015622842    -0.09312099262515776
 Energy
    -55.9659902955
 PlusStress:  xx          yy          zz          yz          xz          xy
    -0.008331590209620637   -0.6700618307979749    -0.18178015002808662    -0.5276673799426403    0.01969284958637605    0.0032821415977293414
 Feature EFS_by Qe
END_CFG

BEGIN_CFG
 Size
    4
 Supercell
    5.05905478539433     0.0      0.0 
    0.0     5.05905478539433      0.0 
    0.0     0.0      10.11810957078866 
 AtomData:  id type    cartes_x    cartes_y    cartes_z    fx    fy    fz
    1    0   2.165718115442495    2.740271931986858    2.2167169290176196    0.11824298639187664    -0.07800547600391097    0.16837050294335443
    2    0   4.783739000351256    0.3144111486136439    5.279396857517395    0.07205362884852329    -0.09091370039529888    -0.10176298522038393
    3    0   0.31956986677831045    4.781410823339018    9.683631369047774    -0.11636196717770685    0.1080994694376084    0.14280576517898652
    4    0   2.849083094122076    2.282014655038183    8.115527759577905    -0.07393464806269306    0.06081970696160143    -0.20941354001229245
 Energy
    -56.0114108608
 PlusStress:  xx          yy          zz          yz          xz          xy
    -0.09391879424905396   0.00951076397458774    0.1647739858597326    -0.02282583353901058    0.00404207468919979    -0.1811800537158965
 Feature EFS_by Qe
END_CFG

BEGIN_CFG
 Size
    4
 Supercell
    5.05905478539433     0.0      0.0 
    0.0     5.05905478539433      0.0 
    0.0     0.0      10.11810957078866 
 AtomData:  id type    cartes_x    cartes_y    cartes_z    fx    fy    fz
    1    0   2.595291057663463    2.166231103597734    2.4573650352383    0.02364489488954481    0.07902466137364429    -0.018812506134716894
    2    0   0.44196813235066235    0.3138217687311455    5.018614725061801    -0.2264468426256787    -0.06062353177565125    -0.0009605642132501785
    3    0   4.869458612824021    4.498883861604843    0.08279497290132798    0.025540826503170834    0.21823113896663263    0.08220511622319053
    4    0   2.2113907561395565    3.1391728368549368    7.6183886111706025    0.1772611212329631    -0.2366325256749611    -0.062432045875223455
 Energy
    -56.0024075655
 PlusStress:  xx          yy          zz          yz          xz          xy
    -0.03209882841423363   -0.5425890847502306    0.21256557483203606    -0.20828573104347153    -0.10556948011792393    -0.0019021527949175483
 Feature EFS_by Qe
END_CFG

BEGIN_CFG
 Size
    4
 Supercell
    4.956852144832083     0.0      0.0 
    0.0     4.956852144832083      0.0 
    0.0     0.0      9.913704289664166 
 AtomData:  id type    cartes_x    cartes_y    cartes_z    fx    fy    fz
    1    0   3.5972862428623245    3.19254984721771    1.8193238521072235    0.06253566134041078    0.6610795234118646    0.4278228564413936
    2    0   1.206423954955171    1.819283205919636    0.5106990239446902    -0.0746486434642444    -0.7254643222848491    -0.2872917464001545
    3    0   4.191308959991213    0.9772210945189934    4.984780041186496    -0.09962896943612898    0.05991544991181534    -0.08099284099153245
    4    0   0.9186841404850279    3.9246501420078266    7.555753021572625    0.1117419515599626    0.004469348961169126    -0.05953826904970666
 Energy
    -55.3013647091
 PlusStress:  xx          yy          zz          yz          xz          xy
    1.0379507045202108   0.6246490665212129    1.090508001560127    -0.1091402593850168    0.8948159381136316    0.018339141945842987
 Feature EFS_by Qe
END_CFG

BEGIN_CFG
 Size
    4
 Supercell
    5.365663765435493     0.0      0.0 
    0.0     5.365663765435493      0.0 
    0.0     0.0      10.731327530870987 
 AtomData:  id type    cartes_x    cartes_y    cartes_z    fx    fy    fz
    1    0   3.496554109135595    2.542539091641164    3.0346788453396605    0.04089417018471109    0.07976385358806996    0.0291910219355886
    2    0   1.078365884957528    0.26669387866445265    5.294929829714887    -0.20830899401118894    -0.1449552075833686    -0.05586364813542092
    3    0   3.7443876796645417    5.11386496938389    10.59596578479484    0.15999384821431512    0.12336153895006308    0.039001066784775044
    4    0   2.4120198571133225    2.8082306643142334    7.9027454404608335    0.007420975612162714    -0.05817018495476442    -0.012328440584942734
 Energy
    -55.6774037506
 PlusStress:  xx          yy          zz          yz          xz          xy
    -1.57551848959015   -0.12935477696310918    -0.04283458623120501    0.07233655290700185    0.513447689261464    0.19658522025314615
 Feature EFS_by Qe
END_CFG

BEGIN_CFG
 Size
    2
 Supercell
    4.956852144832083     0.0      0.0 
    0.0     4.956852144832083      0.0 
    0.0     0.0      4.956852144832083 
 AtomData:  id type    cartes_x    cartes_y    cartes_z    fx    fy    fz
    1    0   0.05737705063207481    0.16631180747819158    0.3369717656578298    -0.06876313077540343    -0.18725422864099164    -0.3075307006759613
    2    0   2.4210480304135373    2.3121142649378497    2.1414543067582117    0.06876313077540343    0.18725422864099164    0.3075307006759613
 Energy
    -27.9995330717
 PlusStress:  xx          yy          zz          yz          xz          xy
    0.3602970448140616   0.230581162758099    -0.1315050666360448    0.15275163352452145    0.0556883700550598    0.03298809069526635
 Feature EFS_by Qe
END_CFG

BEGIN_CFG
 Size
    2
 Supercell
    5.365663765435493     0.0      0.0 
    0.0     5.365663765435493      0.0 
    0.0     0.0      5.365663765435493 
 AtomData:  id type    cartes_x    cartes_y    cartes_z    fx    fy    fz
    1    0   0.023657211541805088    -0.012734866380884599    -0.005549169466213388    -0.01359676586972944    0.00728033625867025    0.0031897108216225145
    2    0   2.6591746711759416    2.695566749098631    2.68838105218396    0.01359676586972944    -0.00728033625867025    -0.0031897108216225145
 Energy
    -28.0553566859
 PlusStress:  xx          yy          zz          yz          xz          xy
    -0.6254984280781923   -0.6247892461869472    -0.6245055734304491    0.00028367275649804645    -0.0004255091347470696    -0.000709181891245116
 Feature EFS_by Qe
END_CFG

BEGIN_CFG
 Size
    4
 Supercell
    4.956852144832083     0.0      0.0 
    0.0     4.956852144832083      0.0 
    0.0     0.0      9.913704289664166 
 AtomData:  id type    cartes_x    cartes_y    cartes_z    fx    fy    fz
    1    0   -0.006902912296893158    4.869643270936765    9.612766360673193    -0.06212916990006053    0.05729755247623896    0.15556435135514113
    2    0   2.2955752320714033    2.4930780316709504    2.493195013381569    0.10002749045608021    -0.016667948826708395    -0.011915778496541627
    3    0   0.27178222036028515    4.9791059325363065    5.310547338256147    -0.19153922949164137    0.0131059422393508    -0.20845220446803592
    4    0   2.396398100382502    2.5287282079817976    7.367752011849506    0.15364090893562168    -0.05373554588888137    0.06480363160943642
 Energy
    -56.1694088757
 PlusStress:  xx          yy          zz          yz          xz          xy
    0.03824382039925793   0.2191751110600747    0.2797837387103607    0.006485794102798129    0.053451889329956995    -0.014313476640657942
 Feature EFS_by Qe
END_CFG

BEGIN_CFG
 Size
    4
 Supercell
    5.365663765435493     0.0      0.0 
    0.0     5.365663765435493      0.0 
    0.0     0.0      10.731327530870987 
 AtomData:  id type    cartes_x    cartes_y    cartes_z    fx    fy    fz
    1    0   4.047538560783246    1.0832561509133458    4.906043690120172    -0.038663223803990586    0.08428513883700046    0.011553767144224644
    2    0   5.205193932335367    1.209715724236259    1.1632726849481556    0.0438478537183883    0.09995344267946991    -0.16856950634299459
    3    0   2.4371097008804985    3.9329145685941302    1.6004358477060003    -0.020596337642085665    -0.05995067402777231    0.1142986567357013
    4    0   4.407150712006498    4.505440550560875    8.427238536965776    0.015411707727687955    -0.12428790748869807    0.04271708246306863
 Energy
    -55.5409435478
 PlusStress:  xx          yy          zz          yz          xz          xy
    -0.4331682991725169   -0.03829582212723626    0.07091818912451162    -0.1032568833652889    0.04141622244871478    0.0763079714979745
 Feature EFS_by Qe
END_CFG

BEGIN_CFG
 Size
    2
 Supercell
    5.05905478539433     0.0      0.0 
    0.0     5.05905478539433      0.0 
    0.0     0.0      5.05905478539433 
 AtomData:  id type    cartes_x    cartes_y    cartes_z    fx    fy    fz
    1    0   4.91977698353051    0.6094840603101179    0.3657701668894886    0.2698640365321842    -0.4819628368879416    -0.486668727357727
    2    0   2.6688046886555066    1.9200428264815683    2.1637567199021976    -0.2698640365321842    0.4819628368879416    0.486668727357727
 Energy
    -27.6561860615
 PlusStress:  xx          yy          zz          yz          xz          xy
    1.1006331609591664   -0.4467681377062592    0.3668777203197221    0.465908550205117    -0.27878426900510317    -0.26487477669226855
 Feature EFS_by Qe
END_CFG

BEGIN_CFG
 Size
    4
 Supercell
    4.8546489750926245     0.0      0.0 
    0.0     4.8546489750926245      0.0 
    0.0     0.0      9.709297950185249 
 AtomData:  id type    cartes_x    cartes_y    cartes_z    fx    fy    fz
    1    0   2.1251410365129018    0.38359203062653374    2.6490780562199783    0.2719168054504362    0.02769129734889473    -0.35616543461980243
    2    0   0.1975099371569509    4.8205809904450145    5.275042157739745    -0.40232625291592056    0.09567178426318106    0.012777869451313534
    3    0   0.3226812354009441    1.4397087785354965    9.035840169369807    -0.47739912843366145    -0.31773026768335816    0.5673993158070979
    4    0   2.209315795092033    3.0654142087186145    7.313283035738899    0.6078085758991457    0.19436718607128237    -0.22401149352827357
 Energy
    -55.3329164473
 PlusStress:  xx          yy          zz          yz          xz          xy
    2.016095049304036   -0.12794934191602314    2.2946842568256236    -1.6807795325585964    -0.5019227879103108    0.2567390735983256
 Feature EFS_by Qe
END_CFG

BEGIN_CFG
 Size
    2
 Supercell
    4.956852144832083     0.0      0.0 
    0.0     4.956852144832083      0.0 
    0.0     0.0      4.956852144832083 
 AtomData:  id type    cartes_x    cartes_y    cartes_z    fx    fy    fz
    1    0   0.09807677222286208    -0.029619174306229627    -0.004359055776165334    -0.09500921092872021    0.029340403040486445    0.004321767628619446
    2    0   2.3803493001931795    2.5080452467222707    2.4827851281922064    0.09500921092872021    -0.029340403040486445    -0.004321767628619446
 Energy
    -28.129123352
 PlusStress:  xx          yy          zz          yz          xz          xy
    -0.015655365075719622   0.022588455323538315    0.026390472556213074    0.0004472961450205607    -0.0013418884350616818    -0.008945922900411213
 Feature EFS_by Qe
END_CFG

BEGIN_CFG
 Size
    6
 Supercell
    4.8546489750926245     0.0      0.0 
    0.0     4.8546489750926245      0.0 
    0.0     0.0      14.563946925277873 
 AtomData:  id type    cartes_x    cartes_y    cartes_z    fx    fy    fz
    1    0   2.805268134090326    2.588770208397095    3.0554898498188323    -0.45498939159562996    -0.7155982273825341    -0.2824662996243838
    2    0   4.526185852762345    0.1529908641957615    14.305118887846323    -0.06972009544395728    0.08542336629204825    0.2177984222720662
    3    0   0.12981379905887427    4.393290807998979    3.4311459857657822    0.4509468457913118    0.6725852109233597    0.4409316268944344
    4    0   3.0252759709925483    2.984629936983688    7.485513844752748    -0.1449621495624258    -0.15537306126556455    -0.2474892666997743
    5    0   4.611345134153624    4.33628606333875    10.419337938352502    -0.012618203932997592    0.38242539873123366    -0.2761956356530351
    6    0   1.893381065371775    2.53530207551522    12.277204819146988    0.23134299474369882    -0.26946268729854306    0.14742140992102806
 Energy
    -83.0399439902
 PlusStress:  xx          yy          zz          yz          xz          xy
    3.2293027256489877   1.9570576682229157    1.3100625969086408    -0.011660408007125261    0.5360636221654074    0.3933024106187115
 Feature EFS_by Qe
END_CFG

BEGIN_CFG
 Size
    4
 Supercell
    4.956852144832083     0.0      0.0 
    0.0     4.956852144832083      0.0 
    0.0     0.0      9.913704289664166 
 AtomData:  id type    cartes_x    cartes_y    cartes_z    fx    fy    fz
    1    0   2.5534163057743484    2.2947970062846643    2.3893221939457545    0.08764299981800885    0.09707972046011841    0.08542927982976366
    2    0   0.5819299806363563    0.1845039505349398    0.20126703311833294    -0.3258387563325206    -0.09583993442256691    -0.036436905409308225
    3    0   4.7357740607464995    4.683362288907903    4.723127148184175    0.032061401720579225    0.1035463025070818    0.09259854442351848
    4    0   2.042582951136533    2.7510400525662293    7.556840059247986    0.20613461190426793    -0.1047860885446333    -0.1415909188439739
 Energy
    -56.045971634
 PlusStress:  xx          yy          zz          yz          xz          xy
    -0.16907794281777191   0.37617605796229153    0.5101412533959494    0.11875712650295885    0.17802386571818313    0.048755279807241106
 Feature EFS_by Qe
END_CFG

BEGIN_CFG
 Size
    4
 Supercell
    4.956852144832083     0.0      0.0 
    0.0     4.956852144832083      0.0 
    0.0     0.0      9.913704289664166 
 AtomData:  id type    cartes_x    cartes_y    cartes_z    fx    fy    fz
    1    0   2.3753979005857064    2.8344762662941156    2.6213638436052773    0.03906765836165722    -0.15448217395322195    -0.0984706873749159
    2    0   -0.002065024603537046    4.512571965516855    9.733754199194683    0.03609006356678294    0.21916187838097032    0.13299134945409738
    3    0   4.9159903341761595    0.2256507801891909    4.76321519422029    0.007069505783599279    -0.0007954993778897355    0.16519030520414366
    4    0   2.624380088135408    2.3410042862935745    7.66592600008452    -0.08222722771203943    -0.06388446216019408    -0.19971122439366057
 Energy
    -56.1225631141
 PlusStress:  xx          yy          zz          yz          xz          xy
    0.38422738857266164   0.03354721087654205    0.06687077368057383    0.16192120449744296    0.03846746847176822    -0.014984420858188782
 Feature EFS_by Qe
END_CFG

BEGIN_CFG
 Size
    2
 Supercell
    5.263461124873246     0.0      0.0 
    0.0     5.263461124873246      0.0 
    0.0     0.0      5.263461124873246 
 AtomData:  id type    cartes_x    cartes_y    cartes_z    fx    fy    fz
    1    0   0.029628022671911506    -0.017615751692725782    -0.005615060328014778    -0.019617518595018365    0.011680522539602679    0.003730928077749823
    2    0   2.602103066110824    2.6493468404754617    2.6373461491107504    0.019617518595018365    -0.011680522539602679    -0.003730928077749823
 Energy
    -28.0875778241
 PlusStress:  xx          yy          zz          yz          xz          xy
    -0.49537405018130337   -0.4941690862754569    -0.49349966188332006    0.0002677697568547586    -0.0004016546352821378    -0.0014727336627011723
 Feature EFS_by Qe
END_CFG

BEGIN_CFG
 Size
    2
 Supercell
    5.161257955133788     0.0      0.0 
    0.0     5.161257955133788      0.0 
    0.0     0.0      5.161257955133788 
 AtomData:  id type    cartes_x    cartes_y    cartes_z    fx    fy    fz
    1    0   0.013227788013212385    -0.008263173986169195    -0.0001558699902450404    -0.009942970892615338    0.00624366738612616    4.2166095014194127e-05
    2    0   2.567401189553682    2.588892151553063    2.580784847557139    0.009942970892615338    -0.00624366738612616    -4.2166095014194127e-05
 Energy
    -28.1133106795
 PlusStress:  xx          yy          zz          yz          xz          xy
    -0.34929560772758034   -0.34853819043579665    -0.34866442665109393    -0.0    0.0    -0.0002524724305945648
 Feature EFS_by Qe
END_CFG

BEGIN_CFG
 Size
    4
 Supercell
    4.8546489750926245     0.0      0.0 
    0.0     4.8546489750926245      0.0 
    0.0     0.0      9.709297950185249 
 AtomData:  id type    cartes_x    cartes_y    cartes_z    fx    fy    fz
    1    0   0.039120217835988895    -0.030650797234042303    -0.12289398240977725    -0.07122624778903745    0.03977522600482223    0.07810009260735745
    2    0   2.296277122182867    2.5009049456670986    2.4504389277114207    0.10716564469924529    -0.057551834598001395    -0.029063495209204208
    3    0   0.1462351346820226    -0.05872620318679797    4.9463071750668615    -0.126295167877575    0.05620920442626894    -0.04195526453912316
    4    0   2.3730160149268484    2.443120058916571    7.290093833979575    0.09035577096736716    -0.03843285294342523    -0.00708133285903009
 Energy
    -56.2290068452
 PlusStress:  xx          yy          zz          yz          xz          xy
    0.403597185255633   0.47839187445449044    0.5021328853518807    0.00420194883139649    -0.0037817539482568416    -0.02773286228721684
 Feature EFS_by Qe
END_CFG

BEGIN_CFG
 Size
    2
 Supercell
    4.8546489750926245     0.0      0.0 
    0.0     4.8546489750926245      0.0 
    0.0     0.0      4.8546489750926245 
 AtomData:  id type    cartes_x    cartes_y    cartes_z    fx    fy    fz
    1    0   -0.16294483645429142    -0.016150931675235652    0.02455578544581351    0.17327128304741268    0.018467206954204313    -0.027867417928679628
    2    0   2.590268838535706    2.4434749337566504    2.402768216635601    -0.17327128304741268    -0.018467206954204313    0.027867417928679628
 Energy
    -28.1035360775
 PlusStress:  xx          yy          zz          yz          xz          xy
    0.15326608362518698   0.2882536898337993    0.2860476666973161    -0.0012605846494189471    -0.01250079777340456    0.008193800221223157
 Feature EFS_by Qe
END_CFG

BEGIN_CFG
 Size
    2
 Supercell
    5.263461124873246     0.0      0.0 
    0.0     5.263461124873246      0.0 
    0.0     0.0      5.263461124873246 
 AtomData:  id type    cartes_x    cartes_y    cartes_z    fx    fy    fz
    1    0   0.047263775516911806    -0.026562056566672838    -0.009614238090693472    -0.03126975899772128    0.017623113722914075    0.006422101958930128