
     Program PWSCF v.6.7MaX starts on 19Jan2023 at 21:29:14 

     This program is part of the open-source Quantum ESPRESSO suite
     for quantum simulation of materials; please cite
         "P. Giannozzi et al., J. Phys.:Condens. Matter 21 395502 (2009);
         "P. Giannozzi et al., J. Phys.:Condens. Matter 29 465901 (2017);
          URL http://www.quantum-espresso.org", 
     in publications or presentations arising from this work. More details at
     http://www.quantum-espresso.org/quote

     Parallel version (MPI), running on     1 processors

     MPI processes distributed on     1 nodes
     Waiting for input...
     Reading input from standard input
Warning: card SENT FROM MAIL FOR WINDOWS ignored

     Current dimensions of program PWSCF are:
     Max number of different atomic species (ntypx) = 10
     Max number of k-points (npk) =  40000
     Max angular momentum in pseudopotentials (lmaxx) =  3
     file K.pbe-mt_fhi.UPF: wavefunction(s)  4p 3d 4f renormalized

     Subspace diagonalization in iterative solution of the eigenvalue problem:
     a serial algorithm will be used


     G-vector sticks info
     --------------------
     sticks:   dense  smooth     PW     G-vecs:    dense   smooth      PW
     Sum        1347    1347    395                31317    31317    4921



     bravais-lattice index     =            3
     lattice parameter (alat)  =      10.0000  a.u.
     unit-cell volume          =     500.0000 (a.u.)^3
     number of atoms/cell      =            1
     number of atomic types    =            1
     number of electrons       =         1.00
     number of Kohn-Sham states=            5
     kinetic-energy cutoff     =      60.0000  Ry
     charge density cutoff     =     240.0000  Ry
     scf convergence threshold =      1.0E-06
     mixing beta               =       0.7000
     number of iterations used =            8  plain     mixing
     Exchange-correlation= PBE
                           (   1   4   3   4   0   0   0)

     celldm(1)=  10.000000  celldm(2)=   0.000000  celldm(3)=   0.000000
     celldm(4)=   0.000000  celldm(5)=   0.000000  celldm(6)=   0.000000

     crystal axes: (cart. coord. in units of alat)
               a(1) = (   0.500000   0.500000   0.500000 )  
               a(2) = (  -0.500000   0.500000   0.500000 )  
               a(3) = (  -0.500000  -0.500000   0.500000 )  

     reciprocal axes: (cart. coord. in units 2 pi/alat)
               b(1) = (  1.000000  0.000000  1.000000 )  
               b(2) = ( -1.000000  1.000000  0.000000 )  
               b(3) = (  0.000000 -1.000000  1.000000 )  


     PseudoPot. # 1 for K  read from file:
     ./K.pbe-mt_fhi.UPF
     MD5 check sum: be3a3788e029af498c3454134aaf9ef1
     Pseudo is Norm-conserving + core correction, Zval =  1.0
     Generated using FHI98PP, converted with fhi2upf.x v.5.0.2
     Using radial grid of  509 points,  3 beta functions with: 
                l(1) =   1
                l(2) =   2
                l(3) =   3

     atomic species   valence    mass     pseudopotential
        K              1.00    39.09830     K ( 1.00)

     48 Sym. Ops., with inversion, found



   Cartesian axes

     site n.     atom                  positions (alat units)
         1           K   tau(   1) = (   0.0000000   0.0000000   0.0000000  )

     number of k points=    26  Marzari-Vanderbilt smearing, width (Ry)=  0.0400
                       cart. coord. in units 2pi/alat
        k(    1) = (   0.0000000   0.0000000   0.1250000), wk =   0.0234375
        k(    2) = (   0.0000000  -0.1250000   0.2500000), wk =   0.0937500
        k(    3) = (   0.0000000  -0.2500000   0.3750000), wk =   0.0937500
        k(    4) = (   0.0000000  -0.3750000   0.5000000), wk =   0.0937500
        k(    5) = (  -0.1250000   0.1250000   0.1250000), wk =   0.0312500
        k(    6) = (  -0.1250000  -0.1250000   0.3750000), wk =   0.0937500
        k(    7) = (  -0.1250000  -0.2500000   0.5000000), wk =   0.1875000
        k(    8) = (  -0.1250000   0.6250000  -0.3750000), wk =   0.0937500
        k(    9) = (  -0.2500000   0.2500000   0.1250000), wk =   0.0937500
        k(   10) = (  -0.2500000   0.7500000  -0.3750000), wk =   0.0937500
        k(   11) = (  -0.3750000   0.3750000   0.1250000), wk =   0.0937500
        k(   12) = (  -0.3750000   0.2500000   0.2500000), wk =   0.0937500
        k(   13) = (   0.5000000  -0.5000000   0.1250000), wk =   0.0468750
        k(   14) = (   0.5000000  -0.6250000   0.2500000), wk =   0.1875000
        k(   15) = (   0.3750000  -0.6250000   0.3750000), wk =   0.0312500
        k(   16) = (   0.0000000   0.0000000   0.3750000), wk =   0.0234375
        k(   17) = (   0.0000000  -0.1250000   0.5000000), wk =   0.0937500
        k(   18) = (   0.0000000  -0.2500000   0.6250000), wk =   0.0937500
        k(   19) = (  -0.1250000  -0.1250000   0.6250000), wk =   0.0937500
        k(   20) = (  -0.1250000   0.7500000  -0.2500000), wk =   0.0937500
        k(   21) = (   0.6250000  -0.6250000   0.3750000), wk =   0.0312500
        k(   22) = (   0.5000000  -0.5000000   0.3750000), wk =   0.0468750
        k(   23) = (   0.0000000   0.0000000   0.6250000), wk =   0.0234375
        k(   24) = (   0.0000000  -0.1250000   0.7500000), wk =   0.0937500
        k(   25) = (  -0.1250000   0.8750000  -0.1250000), wk =   0.0312500
        k(   26) = (   0.0000000   0.0000000   0.8750000), wk =   0.0234375

     Dense  grid:    31317 G-vectors     FFT dimensions: (  45,  45,  45)

     Estimated max dynamical RAM per process >      30.68 MB

     Initial potential from superposition of free atoms

     starting charge    0.98381, renormalised to    1.00000
     Starting wfcs are   16 randomized atomic wfcs

     total cpu time spent up to now is        0.8 secs

     Self-consistent Calculation

     iteration #  1     ecut=    60.00 Ry     beta= 0.70
     Davidson diagonalization with overlap
     ethr =  1.00E-02,  avg # of iterations =  7.2

     Threshold (ethr) on eigenvalues was too large:
     Diagonalizing with lowered threshold

     Davidson diagonalization with overlap
     ethr =  5.42E-05,  avg # of iterations = 10.6

     total cpu time spent up to now is        5.4 secs

     total energy              =      -1.02799289 Ry
     estimated scf accuracy    <       0.00061777 Ry

     iteration #  2     ecut=    60.00 Ry     beta= 0.70
     Davidson diagonalization with overlap
     ethr =  6.18E-05,  avg # of iterations =  1.0

     total cpu time spent up to now is        6.2 secs

     total energy              =      -1.02801833 Ry
     estimated scf accuracy    <       0.00006081 Ry

     iteration #  3     ecut=    60.00 Ry     beta= 0.70
     Davidson diagonalization with overlap
     c_bands:  1 eigenvalues not converged
     ethr =  6.08E-06,  avg # of iterations =  4.6

     total cpu time spent up to now is        7.4 secs

     End of self-consistent calculation

          k = 0.0000 0.0000 0.1250 (  3957 PWs)   bands (ev):

    -2.4156   3.9540   3.9541   4.1232   4.6049

          k = 0.0000-0.1250 0.2500 (  3933 PWs)   bands (ev):

    -2.0683   3.2404   3.6031   4.3342   4.3657

          k = 0.0000-0.2500 0.3750 (  3923 PWs)   bands (ev):

    -1.3909   2.0309   3.2210   4.3521   4.8583

          k = 0.0000-0.3750 0.5000 (  3924 PWs)   bands (ev):

    -0.4249   0.7616   3.0000   4.2722   5.2668

          k =-0.1250 0.1250 0.1250 (  3946 PWs)   bands (ev):

    -2.2412   3.6099   3.6100   4.2486   4.8002

          k =-0.1250-0.1250 0.3750 (  3929 PWs)   bands (ev):

    -1.5579   2.5739   3.0569   4.1898   4.6290

          k =-0.1250-0.2500 0.5000 (  3921 PWs)   bands (ev):

    -0.7400   1.5182   2.6145   4.2051   4.8364

          k =-0.1250 0.6250-0.3750 (  3922 PWs)   bands (ev):

     0.2431   0.4152   2.4720   4.1042   5.1498

          k =-0.2500 0.2500 0.1250 (  3920 PWs)   bands (ev):

    -1.7265   2.6301   3.1362   4.5017   4.8493

          k =-0.2500 0.7500-0.3750 (  3918 PWs)   bands (ev):

     0.1647   1.0850   1.6754   4.5248   4.5742

          k =-0.3750 0.3750 0.1250 (  3911 PWs)   bands (ev):

    -0.8995   1.4142   2.8118   4.5153   5.1506

          k =-0.3750 0.2500 0.2500 (  3918 PWs)   bands (ev):

    -1.0614   2.0073   2.4012   4.2846   4.9368

          k = 0.5000-0.5000 0.1250 (  3914 PWs)   bands (ev):

     0.1220   0.2468   2.6989   4.3683   5.4099

          k = 0.5000-0.6250 0.2500 (  3929 PWs)   bands (ev):

    -0.1233   1.0050   2.0477   3.9081   5.1268

          k = 0.3750-0.6250 0.3750 (  3931 PWs)   bands (ev):

     0.7285   0.7286   1.2990   3.6551   5.2486

          k = 0.0000 0.0000 0.3750 (  3932 PWs)   bands (ev):

    -1.7267   3.2620   3.4035   3.4038   4.5360

          k = 0.0000-0.1250 0.5000 (  3915 PWs)   bands (ev):

    -1.0625   2.1976   3.1326   3.4465   4.9530

          k = 0.0000-0.2500 0.6250 (  3936 PWs)   bands (ev):

    -0.1247   1.0286   2.9599   3.3260   4.7768

          k =-0.1250-0.1250 0.6250 (  3926 PWs)   bands (ev):

    -0.2766   1.6494   2.4103   3.6428   4.3714

          k =-0.1250 0.7500-0.2500 (  3926 PWs)   bands (ev):

     0.5985   0.8555   2.0708   3.7536   4.3981

          k = 0.6250-0.6250 0.3750 (  3922 PWs)   bands (ev):

    -0.2741   1.6604   1.6606   3.4055   5.3525

          k = 0.5000-0.5000 0.3750 (  3928 PWs)   bands (ev):

     0.6081   0.8225   1.5436   3.0001   5.4337

          k = 0.0000 0.0000 0.6250 (  3924 PWs)   bands (ev):

    -0.4311   2.1419   2.9967   2.9969   3.9575

          k = 0.0000-0.1250 0.7500 (  3925 PWs)   bands (ev):

     0.4314   1.4424   2.7656   2.8986   3.8297

          k =-0.1250 0.8750-0.1250 (  3925 PWs)   bands (ev):

     1.1419   1.1419   2.1944   3.4341   3.4343

          k = 0.0000 0.0000 0.8750 (  3924 PWs)   bands (ev):

     1.1140   1.5527   2.8525   2.8533   2.9852

     the Fermi energy is    -0.4574 ev

!    total energy              =      -1.02802176 Ry
     estimated scf accuracy    <       0.00000003 Ry
     smearing contrib. (-TS)   =      -0.00103243 Ry
     internal energy E=F+TS    =      -1.02698933 Ry

     The total energy is F=E-TS. E is the sum of the following terms:
     one-electron contribution =       0.25676690 Ry
     hartree contribution      =       0.00176662 Ry
     xc contribution           =      -0.92159951 Ry
     ewald contribution        =      -0.36392335 Ry

     convergence has been achieved in   3 iterations

     Writing output data file ./K.save/

     init_run     :      4.57s CPU      0.83s WALL (       1 calls)
     electrons    :     38.56s CPU      6.59s WALL (       1 calls)

     Called by init_run:
     wfcinit      :      4.51s CPU      0.76s WALL (       1 calls)
     potinit      :      0.03s CPU      0.03s WALL (       1 calls)
     hinit0       :      0.02s CPU      0.03s WALL (       1 calls)

     Called by electrons:
     c_bands      :     35.89s CPU      5.93s WALL (       4 calls)
     sum_band     :      2.60s CPU      0.58s WALL (       4 calls)
     v_of_rho     :      0.09s CPU      0.09s WALL (       4 calls)
     mix_rho      :      0.01s CPU      0.01s WALL (       4 calls)

     Called by c_bands:
     init_us_2    :      1.21s CPU      0.21s WALL (     234 calls)
     cegterg      :     33.50s CPU      5.53s WALL (     104 calls)

     Called by *egterg:
     cdiaghg      :      0.19s CPU      0.03s WALL (     685 calls)
     h_psi        :     35.20s CPU      5.85s WALL (     737 calls)
     g_psi        :      0.31s CPU      0.05s WALL (     607 calls)

     Called by h_psi:
     h_psi:calbec :      0.57s CPU      0.11s WALL (     737 calls)
     vloc_psi     :     34.22s CPU      5.67s WALL (     737 calls)
     add_vuspsi   :      0.26s CPU      0.05s WALL (     737 calls)

     General routines
     calbec       :      0.57s CPU      0.11s WALL (     737 calls)
     fft          :      0.03s CPU      0.03s WALL (      41 calls)
     ffts         :      0.00s CPU      0.00s WALL (       4 calls)
     fftw         :     32.04s CPU      5.41s WALL (    6026 calls)

     Parallel routines

     PWSCF        :     43.15s CPU      7.45s WALL


   This run was terminated on:  21:29:22  19Jan2023            

=------------------------------------------------------------------------------=
   JOB DONE.
=------------------------------------------------------------------------------=
