
     Program PWSCF v.6.7MaX starts on 19Mar2023 at 21:25:54 

     This program is part of the open-source Quantum ESPRESSO suite
     for quantum simulation of materials; please cite
         "P. Giannozzi et al., J. Phys.:Condens. Matter 21 395502 (2009);
         "P. Giannozzi et al., J. Phys.:Condens. Matter 29 465901 (2017);
          URL http://www.quantum-espresso.org", 
     in publications or presentations arising from this work. More details at
     http://www.quantum-espresso.org/quote

     Parallel version (MPI), running on     1 processors

     MPI processes distributed on     1 nodes
     Waiting for input...
     Reading input from standard input
Warning: card SENT FROM MAIL FOR WINDOWS ignored

     Current dimensions of program PWSCF are:
     Max number of different atomic species (ntypx) = 10
     Max number of k-points (npk) =  40000
     Max angular momentum in pseudopotentials (lmaxx) =  3
     file K.pbe-mt_fhi.UPF: wavefunction(s)  4p 3d 4f renormalized

     Subspace diagonalization in iterative solution of the eigenvalue problem:
     a serial algorithm will be used


     G-vector sticks info
     --------------------
     sticks:   dense  smooth     PW     G-vecs:    dense   smooth      PW
     Sum        1027    1027    307                20833    20833    3367



     bravais-lattice index     =            3
     lattice parameter (alat)  =       8.7000  a.u.
     unit-cell volume          =     329.2515 (a.u.)^3
     number of atoms/cell      =            1
     number of atomic types    =            1
     number of electrons       =         1.00
     number of Kohn-Sham states=            5
     kinetic-energy cutoff     =      60.0000  Ry
     charge density cutoff     =     240.0000  Ry
     scf convergence threshold =      1.0E-06
     mixing beta               =       0.7000
     number of iterations used =            8  plain     mixing
     Exchange-correlation= PBE
                           (   1   4   3   4   0   0   0)

     celldm(1)=   8.700000  celldm(2)=   0.000000  celldm(3)=   0.000000
     celldm(4)=   0.000000  celldm(5)=   0.000000  celldm(6)=   0.000000

     crystal axes: (cart. coord. in units of alat)
               a(1) = (   0.500000   0.500000   0.500000 )  
               a(2) = (  -0.500000   0.500000   0.500000 )  
               a(3) = (  -0.500000  -0.500000   0.500000 )  

     reciprocal axes: (cart. coord. in units 2 pi/alat)
               b(1) = (  1.000000  0.000000  1.000000 )  
               b(2) = ( -1.000000  1.000000  0.000000 )  
               b(3) = (  0.000000 -1.000000  1.000000 )  


     PseudoPot. # 1 for K  read from file:
     ./K.pbe-mt_fhi.UPF
     MD5 check sum: be3a3788e029af498c3454134aaf9ef1
     Pseudo is Norm-conserving + core correction, Zval =  1.0
     Generated using FHI98PP, converted with fhi2upf.x v.5.0.2
     Using radial grid of  509 points,  3 beta functions with: 
                l(1) =   1
                l(2) =   2
                l(3) =   3

     atomic species   valence    mass     pseudopotential
        K              1.00    39.09830     K ( 1.00)

     48 Sym. Ops., with inversion, found



   Cartesian axes

     site n.     atom                  positions (alat units)
         1           K   tau(   1) = (   0.0000000   0.0000000   0.0000000  )

     number of k points=    26  Marzari-Vanderbilt smearing, width (Ry)=  0.0400
                       cart. coord. in units 2pi/alat
        k(    1) = (   0.0000000   0.0000000   0.1250000), wk =   0.0234375
        k(    2) = (   0.0000000  -0.1250000   0.2500000), wk =   0.0937500
        k(    3) = (   0.0000000  -0.2500000   0.3750000), wk =   0.0937500
        k(    4) = (   0.0000000  -0.3750000   0.5000000), wk =   0.0937500
        k(    5) = (  -0.1250000   0.1250000   0.1250000), wk =   0.0312500
        k(    6) = (  -0.1250000  -0.1250000   0.3750000), wk =   0.0937500
        k(    7) = (  -0.1250000  -0.2500000   0.5000000), wk =   0.1875000
        k(    8) = (  -0.1250000   0.6250000  -0.3750000), wk =   0.0937500
        k(    9) = (  -0.2500000   0.2500000   0.1250000), wk =   0.0937500
        k(   10) = (  -0.2500000   0.7500000  -0.3750000), wk =   0.0937500
        k(   11) = (  -0.3750000   0.3750000   0.1250000), wk =   0.0937500
        k(   12) = (  -0.3750000   0.2500000   0.2500000), wk =   0.0937500
        k(   13) = (   0.5000000  -0.5000000   0.1250000), wk =   0.0468750
        k(   14) = (   0.5000000  -0.6250000   0.2500000), wk =   0.1875000
        k(   15) = (   0.3750000  -0.6250000   0.3750000), wk =   0.0312500
        k(   16) = (   0.0000000   0.0000000   0.3750000), wk =   0.0234375
        k(   17) = (   0.0000000  -0.1250000   0.5000000), wk =   0.0937500
        k(   18) = (   0.0000000  -0.2500000   0.6250000), wk =   0.0937500
        k(   19) = (  -0.1250000  -0.1250000   0.6250000), wk =   0.0937500
        k(   20) = (  -0.1250000   0.7500000  -0.2500000), wk =   0.0937500
        k(   21) = (   0.6250000  -0.6250000   0.3750000), wk =   0.0312500
        k(   22) = (   0.5000000  -0.5000000   0.3750000), wk =   0.0468750
        k(   23) = (   0.0000000   0.0000000   0.6250000), wk =   0.0234375
        k(   24) = (   0.0000000  -0.1250000   0.7500000), wk =   0.0937500
        k(   25) = (  -0.1250000   0.8750000  -0.1250000), wk =   0.0312500
        k(   26) = (   0.0000000   0.0000000   0.8750000), wk =   0.0234375

     Dense  grid:    20833 G-vectors     FFT dimensions: (  40,  40,  40)

     Estimated max dynamical RAM per process >      20.74 MB

     Initial potential from superposition of free atoms

     starting charge    0.98381, renormalised to    1.00000
     Starting wfcs are   16 randomized atomic wfcs

     total cpu time spent up to now is        0.7 secs

     Self-consistent Calculation

     iteration #  1     ecut=    60.00 Ry     beta= 0.70
     Davidson diagonalization with overlap
     ethr =  1.00E-02,  avg # of iterations =  6.1

     Threshold (ethr) on eigenvalues was too large:
     Diagonalizing with lowered threshold

     Davidson diagonalization with overlap
     ethr =  8.38E-05,  avg # of iterations =  7.3

     total cpu time spent up to now is        4.9 secs

     total energy              =      -1.02148014 Ry
     estimated scf accuracy    <       0.00088389 Ry

     iteration #  2     ecut=    60.00 Ry     beta= 0.70
     Davidson diagonalization with overlap
     ethr =  8.84E-05,  avg # of iterations =  1.0

     total cpu time spent up to now is        5.7 secs

     total energy              =      -1.02150161 Ry
     estimated scf accuracy    <       0.00008203 Ry

     iteration #  3     ecut=    60.00 Ry     beta= 0.70
     Davidson diagonalization with overlap
     c_bands:  2 eigenvalues not converged
     ethr =  8.20E-06,  avg # of iterations =  4.7

     total cpu time spent up to now is        7.0 secs

     End of self-consistent calculation

          k = 0.0000 0.0000 0.1250 (  2583 PWs)   bands (ev):

    -2.0265   5.3198   5.3199   5.5033   6.1768

          k = 0.0000-0.1250 0.2500 (  2580 PWs)   bands (ev):

    -1.5618   4.5600   4.8999   5.8491   5.9054

          k = 0.0000-0.2500 0.3750 (  2592 PWs)   bands (ev):

    -0.6755   3.2594   4.4226   5.9904   6.7343

          k = 0.0000-0.3750 0.5000 (  2594 PWs)   bands (ev):

     0.5323   1.8976   4.1450   6.0666   7.0622

          k =-0.1250 0.1250 0.1250 (  2599 PWs)   bands (ev):

    -1.7923   4.9177   4.9207   5.7819   6.4117

          k =-0.1250-0.1250 0.3750 (  2578 PWs)   bands (ev):

    -0.8915   3.7819   4.3940   5.6843   6.4031

          k =-0.1250-0.2500 0.5000 (  2586 PWs)   bands (ev):

     0.1463   2.6775   3.9256   5.8406   6.8522

          k =-0.1250 0.6250-0.3750 (  2584 PWs)   bands (ev):

     1.3581   1.4582   3.7553   5.8172   6.9499

          k =-0.2500 0.2500 0.1250 (  2587 PWs)   bands (ev):

    -1.1102   3.8712   4.3508   6.4210   6.4714

          k =-0.2500 0.7500-0.3750 (  2579 PWs)   bands (ev):

     1.2231   2.1776   3.0571   6.2444   6.5650

          k =-0.3750 0.3750 0.1250 (  2582 PWs)   bands (ev):

    -0.0497   2.5995   3.9605   6.5476   6.9136

          k =-0.3750 0.2500 0.2500 (  2591 PWs)   bands (ev):

    -0.2515   3.1618   3.6125   6.5844   6.8233

          k = 0.5000-0.5000 0.1250 (  2588 PWs)   bands (ev):

     1.2470   1.2545   3.8244   6.4573   7.1713

          k = 0.5000-0.6250 0.2500 (  2581 PWs)   bands (ev):

     0.9007   2.1404   3.2397   6.4560   6.9884

          k = 0.3750-0.6250 0.3750 (  2571 PWs)   bands (ev):

     1.8421   1.8421   2.5472   6.9951   6.9952

          k = 0.0000 0.0000 0.3750 (  2583 PWs)   bands (ev):

    -1.1122   4.4930   4.8314   4.8317   6.0358

          k = 0.0000-0.1250 0.5000 (  2590 PWs)   bands (ev):

    -0.2610   3.3478   4.5680   4.9667   6.6965

          k = 0.0000-0.2500 0.6250 (  2582 PWs)   bands (ev):

     0.8792   2.1452   4.3664   4.9219   6.6476

          k =-0.1250-0.1250 0.6250 (  2593 PWs)   bands (ev):

     0.6926   2.6942   3.9863   5.2629   6.2331

          k =-0.1250 0.7500-0.2500 (  2581 PWs)   bands (ev):

     1.6561   1.9304   3.5947   5.4375   6.2788

          k = 0.6250-0.6250 0.3750 (  2598 PWs)   bands (ev):

     0.7228   2.7932   2.7932   6.3025   7.0974

          k = 0.5000-0.5000 0.3750 (  2578 PWs)   bands (ev):

     1.7301   1.9403   2.6724   5.7463   7.1695

          k = 0.0000 0.0000 0.6250 (  2579 PWs)   bands (ev):

     0.5012   3.0654   4.6964   4.6965   5.8881

          k = 0.0000-0.1250 0.7500 (  2584 PWs)   bands (ev):

     1.4459   2.4007   4.4893   4.7172   5.7919

          k =-0.1250 0.8750-0.1250 (  2571 PWs)   bands (ev):

     2.0705   2.0706   4.0807   5.4274   5.4285

          k = 0.0000 0.0000 0.8750 (  2582 PWs)   bands (ev):

     1.9992   2.3127   4.9981   4.9988   5.0607

     the Fermi energy is     0.4868 ev

!    total energy              =      -1.02150761 Ry
     estimated scf accuracy    <       0.00000002 Ry
     smearing contrib. (-TS)   =      -0.00052562 Ry
     internal energy E=F+TS    =      -1.02098199 Ry

     The total energy is F=E-TS. E is the sum of the following terms:
     one-electron contribution =       0.36830072 Ry
     hartree contribution      =       0.00337422 Ry
     xc contribution           =      -0.97435423 Ry
     ewald contribution        =      -0.41830270 Ry

     convergence has been achieved in   3 iterations

     Writing output data file ./K.save/

     init_run     :      3.46s CPU      0.71s WALL (       1 calls)
     electrons    :     30.42s CPU      6.32s WALL (       1 calls)

     Called by init_run:
     wfcinit      :      3.40s CPU      0.65s WALL (       1 calls)
     potinit      :      0.02s CPU      0.02s WALL (       1 calls)
     hinit0       :      0.02s CPU      0.02s WALL (       1 calls)

     Called by electrons:
     c_bands      :     27.99s CPU      5.75s WALL (       4 calls)
     sum_band     :      2.36s CPU      0.50s WALL (       4 calls)
     v_of_rho     :      0.07s CPU      0.08s WALL (       4 calls)
     mix_rho      :      0.01s CPU      0.01s WALL (       4 calls)

     Called by c_bands:
     init_us_2    :      0.84s CPU      0.15s WALL (     234 calls)
     cegterg      :     26.47s CPU      5.47s WALL (     104 calls)

     Called by *egterg:
     cdiaghg      :      0.20s CPU      0.04s WALL (     576 calls)
     h_psi        :     24.91s CPU      5.01s WALL (     628 calls)
     g_psi        :      0.16s CPU      0.03s WALL (     498 calls)

     Called by h_psi:
     h_psi:calbec :      2.48s CPU      0.61s WALL (     628 calls)
     vloc_psi     :     18.56s CPU      3.45s WALL (     628 calls)
     add_vuspsi   :      3.79s CPU      0.93s WALL (     628 calls)

     General routines
     calbec       :      2.47s CPU      0.61s WALL (     628 calls)
     fft          :      0.03s CPU      0.03s WALL (      41 calls)
     ffts         :      0.00s CPU      0.00s WALL (       4 calls)
     fftw         :     18.10s CPU      3.40s WALL (    5362 calls)

     Parallel routines

     PWSCF        :     33.89s CPU      7.06s WALL


   This run was terminated on:  21:26: 1  19Mar2023            

=------------------------------------------------------------------------------=
   JOB DONE.
=------------------------------------------------------------------------------=
