
     Program PWSCF v.6.7MaX starts on 19Mar2023 at 21:25:25 

     This program is part of the open-source Quantum ESPRESSO suite
     for quantum simulation of materials; please cite
         "P. Giannozzi et al., J. Phys.:Condens. Matter 21 395502 (2009);
         "P. Giannozzi et al., J. Phys.:Condens. Matter 29 465901 (2017);
          URL http://www.quantum-espresso.org", 
     in publications or presentations arising from this work. More details at
     http://www.quantum-espresso.org/quote

     Parallel version (MPI), running on     1 processors

     MPI processes distributed on     1 nodes
     Waiting for input...
     Reading input from standard input
Warning: card SENT FROM MAIL FOR WINDOWS ignored

     Current dimensions of program PWSCF are:
     Max number of different atomic species (ntypx) = 10
     Max number of k-points (npk) =  40000
     Max angular momentum in pseudopotentials (lmaxx) =  3
     file K.pbe-mt_fhi.UPF: wavefunction(s)  4p 3d 4f renormalized

     Subspace diagonalization in iterative solution of the eigenvalue problem:
     a serial algorithm will be used


     G-vector sticks info
     --------------------
     sticks:   dense  smooth     PW     G-vecs:    dense   smooth      PW
     Sum         887     887    265                16727    16727    2731



     bravais-lattice index     =            3
     lattice parameter (alat)  =       8.1000  a.u.
     unit-cell volume          =     265.7205 (a.u.)^3
     number of atoms/cell      =            1
     number of atomic types    =            1
     number of electrons       =         1.00
     number of Kohn-Sham states=            5
     kinetic-energy cutoff     =      60.0000  Ry
     charge density cutoff     =     240.0000  Ry
     scf convergence threshold =      1.0E-06
     mixing beta               =       0.7000
     number of iterations used =            8  plain     mixing
     Exchange-correlation= PBE
                           (   1   4   3   4   0   0   0)

     celldm(1)=   8.100000  celldm(2)=   0.000000  celldm(3)=   0.000000
     celldm(4)=   0.000000  celldm(5)=   0.000000  celldm(6)=   0.000000

     crystal axes: (cart. coord. in units of alat)
               a(1) = (   0.500000   0.500000   0.500000 )  
               a(2) = (  -0.500000   0.500000   0.500000 )  
               a(3) = (  -0.500000  -0.500000   0.500000 )  

     reciprocal axes: (cart. coord. in units 2 pi/alat)
               b(1) = (  1.000000  0.000000  1.000000 )  
               b(2) = ( -1.000000  1.000000  0.000000 )  
               b(3) = (  0.000000 -1.000000  1.000000 )  


     PseudoPot. # 1 for K  read from file:
     ./K.pbe-mt_fhi.UPF
     MD5 check sum: be3a3788e029af498c3454134aaf9ef1
     Pseudo is Norm-conserving + core correction, Zval =  1.0
     Generated using FHI98PP, converted with fhi2upf.x v.5.0.2
     Using radial grid of  509 points,  3 beta functions with: 
                l(1) =   1
                l(2) =   2
                l(3) =   3

     atomic species   valence    mass     pseudopotential
        K              1.00    39.09830     K ( 1.00)

     48 Sym. Ops., with inversion, found



   Cartesian axes

     site n.     atom                  positions (alat units)
         1           K   tau(   1) = (   0.0000000   0.0000000   0.0000000  )

     number of k points=    26  Marzari-Vanderbilt smearing, width (Ry)=  0.0400
                       cart. coord. in units 2pi/alat
        k(    1) = (   0.0000000   0.0000000   0.1250000), wk =   0.0234375
        k(    2) = (   0.0000000  -0.1250000   0.2500000), wk =   0.0937500
        k(    3) = (   0.0000000  -0.2500000   0.3750000), wk =   0.0937500
        k(    4) = (   0.0000000  -0.3750000   0.5000000), wk =   0.0937500
        k(    5) = (  -0.1250000   0.1250000   0.1250000), wk =   0.0312500
        k(    6) = (  -0.1250000  -0.1250000   0.3750000), wk =   0.0937500
        k(    7) = (  -0.1250000  -0.2500000   0.5000000), wk =   0.1875000
        k(    8) = (  -0.1250000   0.6250000  -0.3750000), wk =   0.0937500
        k(    9) = (  -0.2500000   0.2500000   0.1250000), wk =   0.0937500
        k(   10) = (  -0.2500000   0.7500000  -0.3750000), wk =   0.0937500
        k(   11) = (  -0.3750000   0.3750000   0.1250000), wk =   0.0937500
        k(   12) = (  -0.3750000   0.2500000   0.2500000), wk =   0.0937500
        k(   13) = (   0.5000000  -0.5000000   0.1250000), wk =   0.0468750
        k(   14) = (   0.5000000  -0.6250000   0.2500000), wk =   0.1875000
        k(   15) = (   0.3750000  -0.6250000   0.3750000), wk =   0.0312500
        k(   16) = (   0.0000000   0.0000000   0.3750000), wk =   0.0234375
        k(   17) = (   0.0000000  -0.1250000   0.5000000), wk =   0.0937500
        k(   18) = (   0.0000000  -0.2500000   0.6250000), wk =   0.0937500
        k(   19) = (  -0.1250000  -0.1250000   0.6250000), wk =   0.0937500
        k(   20) = (  -0.1250000   0.7500000  -0.2500000), wk =   0.0937500
        k(   21) = (   0.6250000  -0.6250000   0.3750000), wk =   0.0312500
        k(   22) = (   0.5000000  -0.5000000   0.3750000), wk =   0.0468750
        k(   23) = (   0.0000000   0.0000000   0.6250000), wk =   0.0234375
        k(   24) = (   0.0000000  -0.1250000   0.7500000), wk =   0.0937500
        k(   25) = (  -0.1250000   0.8750000  -0.1250000), wk =   0.0312500
        k(   26) = (   0.0000000   0.0000000   0.8750000), wk =   0.0234375

     Dense  grid:    16727 G-vectors     FFT dimensions: (  36,  36,  36)

     Estimated max dynamical RAM per process >      16.45 MB

     Initial potential from superposition of free atoms

     starting charge    0.98381, renormalised to    1.00000
     Starting wfcs are   16 randomized atomic wfcs

     total cpu time spent up to now is        0.4 secs

     Self-consistent Calculation

     iteration #  1     ecut=    60.00 Ry     beta= 0.70
     Davidson diagonalization with overlap
     ethr =  1.00E-02,  avg # of iterations =  5.5

     Threshold (ethr) on eigenvalues was too large:
     Diagonalizing with lowered threshold

     Davidson diagonalization with overlap
     ethr =  1.18E-04,  avg # of iterations =  6.0

     total cpu time spent up to now is        2.1 secs

     total energy              =      -1.00542925 Ry
     estimated scf accuracy    <       0.00121663 Ry

     iteration #  2     ecut=    60.00 Ry     beta= 0.70
     Davidson diagonalization with overlap
     ethr =  1.22E-04,  avg # of iterations =  1.3

     total cpu time spent up to now is        2.5 secs

     total energy              =      -1.00546520 Ry
     estimated scf accuracy    <       0.00011258 Ry

     iteration #  3     ecut=    60.00 Ry     beta= 0.70
     Davidson diagonalization with overlap
     ethr =  1.13E-05,  avg # of iterations =  3.4

     total cpu time spent up to now is        3.0 secs

     End of self-consistent calculation

          k = 0.0000 0.0000 0.1250 (  2086 PWs)   bands (ev):

    -1.6310   6.1299   6.1299   6.3241   7.1305

          k = 0.0000-0.1250 0.2500 (  2085 PWs)   bands (ev):

    -1.0883   5.3426   5.6626   6.7593   6.8258

          k = 0.0000-0.2500 0.3750 (  2084 PWs)   bands (ev):

    -0.0743   4.0100   5.1256   6.9686   7.8633

          k = 0.0000-0.3750 0.5000 (  2088 PWs)   bands (ev):

     1.2432   2.6747   4.8131   7.1334   8.1646

          k =-0.1250 0.1250 0.1250 (  2093 PWs)   bands (ev):

    -1.3566   5.6895   5.6912   6.6934   7.3920

          k =-0.1250-0.1250 0.3750 (  2089 PWs)   bands (ev):

    -0.3179   4.5041   5.1715   6.5812   7.4638

          k =-0.1250-0.2500 0.5000 (  2088 PWs)   bands (ev):

     0.8388   3.4011   4.6874   6.8172   8.0186

          k =-0.1250 0.6250-0.3750 (  2104 PWs)   bands (ev):

     2.1210   2.2033   4.4987   6.8443   8.0886

          k =-0.2500 0.2500 0.1250 (  2089 PWs)   bands (ev):

    -0.5666   4.6121   5.0646   7.4499   7.5196

          k =-0.2500 0.7500-0.3750 (  2091 PWs)   bands (ev):

     1.9863   2.8965   3.8678   7.2694   7.7246

          k =-0.3750 0.3750 0.1250 (  2081 PWs)   bands (ev):

     0.6249   3.3560   4.6349   7.6313   7.9801

          k =-0.3750 0.2500 0.2500 (  2086 PWs)   bands (ev):

     0.4077   3.8710   4.3292   7.5859   8.0784

          k = 0.5000-0.5000 0.1250 (  2086 PWs)   bands (ev):

     1.8837   2.1431   4.4853   7.6063   8.2569

          k = 0.5000-0.6250 0.2500 (  2089 PWs)   bands (ev):

     1.6607   2.8916   3.9506   7.7133   8.1739

          k = 0.3750-0.6250 0.3750 (  2094 PWs)   bands (ev):

     2.6253   2.6260   3.2796   8.0704   8.0708

          k = 0.0000 0.0000 0.3750 (  2090 PWs)   bands (ev):

    -0.5706   5.2229   5.6809   5.6811   6.9366

          k = 0.0000-0.1250 0.5000 (  2083 PWs)   bands (ev):

     0.3863   4.0231   5.4169   5.8890   7.7586

          k = 0.0000-0.2500 0.6250 (  2091 PWs)   bands (ev):

     1.6086   2.8510   5.1919   5.8956   7.8605

          k =-0.1250-0.1250 0.6250 (  2085 PWs)   bands (ev):

     1.4076   3.3209   4.9230   6.2680   7.4011

          k =-0.1250 0.7500-0.2500 (  2081 PWs)   bands (ev):

     2.3806   2.5942   4.5202   6.4933   7.5166

          k = 0.6250-0.6250 0.3750 (  2085 PWs)   bands (ev):

     1.4799   3.5081   3.5081   8.1704   8.1708

          k = 0.5000-0.5000 0.3750 (  2092 PWs)   bands (ev):

     2.5377   2.6812   3.3928   7.6378   8.2799

          k = 0.0000 0.0000 0.6250 (  2074 PWs)   bands (ev):

     1.1952   3.6069   5.7433   5.7433   7.0873

          k = 0.0000-0.1250 0.7500 (  2065 PWs)   bands (ev):

     2.1143   2.9498   5.6148   5.8468   7.1374

          k =-0.1250 0.8750-0.1250 (  2061 PWs)   bands (ev):

     2.6245   2.6245   5.2886   6.7991   6.7995

          k = 0.0000 0.0000 0.8750 (  2058 PWs)   bands (ev):

     2.5126   2.7564   6.4603   6.4618   6.5517

     the Fermi energy is     1.1996 ev

!    total energy              =      -1.00547548 Ry
     estimated scf accuracy    <       0.00000004 Ry
     smearing contrib. (-TS)   =      -0.00037946 Ry
     internal energy E=F+TS    =      -1.00509601 Ry

     The total energy is F=E-TS. E is the sum of the following terms:
     one-electron contribution =       0.44892735 Ry
     hartree contribution      =       0.00419724 Ry
     xc contribution           =      -1.00893253 Ry
     ewald contribution        =      -0.44928808 Ry

     convergence has been achieved in   3 iterations

     Writing output data file ./K.save/

     init_run     :      2.08s CPU      0.42s WALL (       1 calls)
     electrons    :     14.73s CPU      2.58s WALL (       1 calls)

     Called by init_run:
     wfcinit      :      2.03s CPU      0.37s WALL (       1 calls)
     potinit      :      0.01s CPU      0.01s WALL (       1 calls)
     hinit0       :      0.02s CPU      0.02s WALL (       1 calls)

     Called by electrons:
     c_bands      :     12.98s CPU      2.27s WALL (       4 calls)
     sum_band     :      1.41s CPU      0.25s WALL (       4 calls)
     v_of_rho     :      0.30s CPU      0.06s WALL (       4 calls)
     mix_rho      :      0.03s CPU      0.00s WALL (       4 calls)

     Called by c_bands:
     init_us_2    :      0.57s CPU      0.09s WALL (     234 calls)
     cegterg      :     11.98s CPU      2.10s WALL (     104 calls)

     Called by *egterg:
     cdiaghg      :      0.12s CPU      0.02s WALL (     500 calls)
     h_psi        :     11.95s CPU      2.08s WALL (     552 calls)
     g_psi        :      0.08s CPU      0.01s WALL (     422 calls)

     Called by h_psi:
     h_psi:calbec :      0.42s CPU      0.09s WALL (     552 calls)
     vloc_psi     :      9.88s CPU      1.67s WALL (     552 calls)
     add_vuspsi   :      1.60s CPU      0.32s WALL (     552 calls)

     General routines
     calbec       :      0.42s CPU      0.09s WALL (     552 calls)
     fft          :      0.12s CPU      0.02s WALL (      41 calls)
     ffts         :      0.01s CPU      0.00s WALL (       4 calls)
     fftw         :      9.58s CPU      1.63s WALL (    5062 calls)

     Parallel routines

     PWSCF        :     16.92s CPU      3.04s WALL


   This run was terminated on:  21:25:28  19Mar2023            

=------------------------------------------------------------------------------=
   JOB DONE.
=------------------------------------------------------------------------------=
