
     Program PWSCF v.6.7MaX starts on 19Mar2023 at 21:25:34 

     This program is part of the open-source Quantum ESPRESSO suite
     for quantum simulation of materials; please cite
         "P. Giannozzi et al., J. Phys.:Condens. Matter 21 395502 (2009);
         "P. Giannozzi et al., J. Phys.:Condens. Matter 29 465901 (2017);
          URL http://www.quantum-espresso.org", 
     in publications or presentations arising from this work. More details at
     http://www.quantum-espresso.org/quote

     Parallel version (MPI), running on     1 processors

     MPI processes distributed on     1 nodes
     Waiting for input...
     Reading input from standard input
Warning: card SENT FROM MAIL FOR WINDOWS ignored

     Current dimensions of program PWSCF are:
     Max number of different atomic species (ntypx) = 10
     Max number of k-points (npk) =  40000
     Max angular momentum in pseudopotentials (lmaxx) =  3
     file K.pbe-mt_fhi.UPF: wavefunction(s)  4p 3d 4f renormalized

     Subspace diagonalization in iterative solution of the eigenvalue problem:
     a serial algorithm will be used


     G-vector sticks info
     --------------------
     sticks:   dense  smooth     PW     G-vecs:    dense   smooth      PW
     Sum         929     929    277                17957    17957    2899



     bravais-lattice index     =            3
     lattice parameter (alat)  =       8.3000  a.u.
     unit-cell volume          =     285.8935 (a.u.)^3
     number of atoms/cell      =            1
     number of atomic types    =            1
     number of electrons       =         1.00
     number of Kohn-Sham states=            5
     kinetic-energy cutoff     =      60.0000  Ry
     charge density cutoff     =     240.0000  Ry
     scf convergence threshold =      1.0E-06
     mixing beta               =       0.7000
     number of iterations used =            8  plain     mixing
     Exchange-correlation= PBE
                           (   1   4   3   4   0   0   0)

     celldm(1)=   8.300000  celldm(2)=   0.000000  celldm(3)=   0.000000
     celldm(4)=   0.000000  celldm(5)=   0.000000  celldm(6)=   0.000000

     crystal axes: (cart. coord. in units of alat)
               a(1) = (   0.500000   0.500000   0.500000 )  
               a(2) = (  -0.500000   0.500000   0.500000 )  
               a(3) = (  -0.500000  -0.500000   0.500000 )  

     reciprocal axes: (cart. coord. in units 2 pi/alat)
               b(1) = (  1.000000  0.000000  1.000000 )  
               b(2) = ( -1.000000  1.000000  0.000000 )  
               b(3) = (  0.000000 -1.000000  1.000000 )  


     PseudoPot. # 1 for K  read from file:
     ./K.pbe-mt_fhi.UPF
     MD5 check sum: be3a3788e029af498c3454134aaf9ef1
     Pseudo is Norm-conserving + core correction, Zval =  1.0
     Generated using FHI98PP, converted with fhi2upf.x v.5.0.2
     Using radial grid of  509 points,  3 beta functions with: 
                l(1) =   1
                l(2) =   2
                l(3) =   3

     atomic species   valence    mass     pseudopotential
        K              1.00    39.09830     K ( 1.00)

     48 Sym. Ops., with inversion, found



   Cartesian axes

     site n.     atom                  positions (alat units)
         1           K   tau(   1) = (   0.0000000   0.0000000   0.0000000  )

     number of k points=    26  Marzari-Vanderbilt smearing, width (Ry)=  0.0400
                       cart. coord. in units 2pi/alat
        k(    1) = (   0.0000000   0.0000000   0.1250000), wk =   0.0234375
        k(    2) = (   0.0000000  -0.1250000   0.2500000), wk =   0.0937500
        k(    3) = (   0.0000000  -0.2500000   0.3750000), wk =   0.0937500
        k(    4) = (   0.0000000  -0.3750000   0.5000000), wk =   0.0937500
        k(    5) = (  -0.1250000   0.1250000   0.1250000), wk =   0.0312500
        k(    6) = (  -0.1250000  -0.1250000   0.3750000), wk =   0.0937500
        k(    7) = (  -0.1250000  -0.2500000   0.5000000), wk =   0.1875000
        k(    8) = (  -0.1250000   0.6250000  -0.3750000), wk =   0.0937500
        k(    9) = (  -0.2500000   0.2500000   0.1250000), wk =   0.0937500
        k(   10) = (  -0.2500000   0.7500000  -0.3750000), wk =   0.0937500
        k(   11) = (  -0.3750000   0.3750000   0.1250000), wk =   0.0937500
        k(   12) = (  -0.3750000   0.2500000   0.2500000), wk =   0.0937500
        k(   13) = (   0.5000000  -0.5000000   0.1250000), wk =   0.0468750
        k(   14) = (   0.5000000  -0.6250000   0.2500000), wk =   0.1875000
        k(   15) = (   0.3750000  -0.6250000   0.3750000), wk =   0.0312500
        k(   16) = (   0.0000000   0.0000000   0.3750000), wk =   0.0234375
        k(   17) = (   0.0000000  -0.1250000   0.5000000), wk =   0.0937500
        k(   18) = (   0.0000000  -0.2500000   0.6250000), wk =   0.0937500
        k(   19) = (  -0.1250000  -0.1250000   0.6250000), wk =   0.0937500
        k(   20) = (  -0.1250000   0.7500000  -0.2500000), wk =   0.0937500
        k(   21) = (   0.6250000  -0.6250000   0.3750000), wk =   0.0312500
        k(   22) = (   0.5000000  -0.5000000   0.3750000), wk =   0.0468750
        k(   23) = (   0.0000000   0.0000000   0.6250000), wk =   0.0234375
        k(   24) = (   0.0000000  -0.1250000   0.7500000), wk =   0.0937500
        k(   25) = (  -0.1250000   0.8750000  -0.1250000), wk =   0.0312500
        k(   26) = (   0.0000000   0.0000000   0.8750000), wk =   0.0234375

     Dense  grid:    17957 G-vectors     FFT dimensions: (  36,  36,  36)

     Estimated max dynamical RAM per process >      17.41 MB

     Initial potential from superposition of free atoms

     starting charge    0.98381, renormalised to    1.00000
     Starting wfcs are   16 randomized atomic wfcs

     total cpu time spent up to now is        0.5 secs

     Self-consistent Calculation

     iteration #  1     ecut=    60.00 Ry     beta= 0.70
     Davidson diagonalization with overlap
     ethr =  1.00E-02,  avg # of iterations =  5.4

     Threshold (ethr) on eigenvalues was too large:
     Diagonalizing with lowered threshold

     Davidson diagonalization with overlap
     ethr =  1.05E-04,  avg # of iterations =  6.8

     total cpu time spent up to now is        2.0 secs

     total energy              =      -1.01219013 Ry
     estimated scf accuracy    <       0.00108976 Ry

     iteration #  2     ecut=    60.00 Ry     beta= 0.70
     Davidson diagonalization with overlap
     ethr =  1.09E-04,  avg # of iterations =  1.0

     total cpu time spent up to now is        2.3 secs

     total energy              =      -1.01222247 Ry
     estimated scf accuracy    <       0.00010170 Ry

     iteration #  3     ecut=    60.00 Ry     beta= 0.70
     Davidson diagonalization with overlap
     ethr =  1.02E-05,  avg # of iterations =  4.1

     total cpu time spent up to now is        2.8 secs

     End of self-consistent calculation

          k = 0.0000 0.0000 0.1250 (  2235 PWs)   bands (ev):

    -1.7872   5.8438   5.8440   6.0340   6.7925

          k = 0.0000-0.1250 0.2500 (  2231 PWs)   bands (ev):

    -1.2727   5.0664   5.3938   6.4347   6.4985

          k = 0.0000-0.2500 0.3750 (  2241 PWs)   bands (ev):

    -0.3038   3.7435   4.8781   6.6259   7.4635

          k = 0.0000-0.3750 0.5000 (  2243 PWs)   bands (ev):

     0.9805   2.3888   4.5780   6.7566   7.7709

          k =-0.1250 0.1250 0.1250 (  2232 PWs)   bands (ev):

    -1.5274   5.4172   5.4174   6.3721   7.0437

          k =-0.1250-0.1250 0.3750 (  2242 PWs)   bands (ev):

    -0.5380   4.2488   4.8978   6.2637   7.0856

          k =-0.1250-0.2500 0.5000 (  2235 PWs)   bands (ev):

     0.5786   3.1423   4.4193   6.4713   7.6046

          k =-0.1250 0.6250-0.3750 (  2245 PWs)   bands (ev):

     1.8835   1.8879   4.2375   6.4815   7.6764

          k =-0.2500 0.2500 0.1250 (  2242 PWs)   bands (ev):

    -0.7761   4.3505   4.8142   7.0718   7.1410

          k =-0.2500 0.7500-0.3750 (  2238 PWs)   bands (ev):

     1.7048   2.6373   3.5824   6.9050   7.3172

          k =-0.3750 0.3750 0.1250 (  2239 PWs)   bands (ev):

     0.3707   3.0840   4.3974   7.2523   7.6011

          k =-0.3750 0.2500 0.2500 (  2239 PWs)   bands (ev):

     0.1576   3.6186   4.0757   7.2278   7.6805

          k = 0.5000-0.5000 0.1250 (  2244 PWs)   bands (ev):

     1.6554   1.8086   4.2524   7.2047   7.8704

          k = 0.5000-0.6250 0.2500 (  2245 PWs)   bands (ev):

     1.3787   2.6188   3.6990   7.2996   7.7629

          k = 0.3750-0.6250 0.3750 (  2250 PWs)   bands (ev):

     2.3379   2.3379   3.0212   7.6875   7.6876

          k = 0.0000 0.0000 0.3750 (  2242 PWs)   bands (ev):

    -0.7794   4.9655   5.3806   5.3807   6.6164

          k = 0.0000-0.1250 0.5000 (  2238 PWs)   bands (ev):

     0.1412   3.7853   5.1173   5.5613   7.3799

          k = 0.0000-0.2500 0.6250 (  2239 PWs)   bands (ev):

     1.3396   2.5978   4.9011   5.5499   7.4201

          k =-0.1250-0.1250 0.6250 (  2248 PWs)   bands (ev):

     1.1425   3.0993   4.5935   5.9097   6.9813

          k =-0.1250 0.7500-0.2500 (  2247 PWs)   bands (ev):

     2.1171   2.3579   4.1934   6.1159   7.0677

          k = 0.6250-0.6250 0.3750 (  2256 PWs)   bands (ev):

     1.1969   3.2522   3.2522   7.5725   7.7886

          k = 0.5000-0.5000 0.3750 (  2252 PWs)   bands (ev):

     2.2399   2.4126   3.1345   6.9532   7.8791

          k = 0.0000 0.0000 0.6250 (  2258 PWs)   bands (ev):

     0.9374   3.4163   5.3711   5.3712   6.6566

          k = 0.0000-0.1250 0.7500 (  2259 PWs)   bands (ev):

     1.8733   2.7574   5.2102   5.4456   6.6436

          k =-0.1250 0.8750-0.1250 (  2256 PWs)   bands (ev):

     2.4290   2.4290   4.8568   6.2997   6.2998

          k = 0.0000 0.0000 0.8750 (  2254 PWs)   bands (ev):

     2.3323   2.6006   5.9299   5.9314   6.0018

     the Fermi energy is     0.9344 ev

!    total energy              =      -1.01223527 Ry
     estimated scf accuracy    <       0.00000004 Ry
     smearing contrib. (-TS)   =      -0.00041232 Ry
     internal energy E=F+TS    =      -1.01182295 Ry

     The total energy is F=E-TS. E is the sum of the following terms:
     one-electron contribution =       0.41912982 Ry
     hartree contribution      =       0.00393244 Ry
     xc contribution           =      -0.99642334 Ry
     ewald contribution        =      -0.43846186 Ry

     convergence has been achieved in   3 iterations

     Writing output data file ./K.save/

     init_run     :      2.05s CPU      0.44s WALL (       1 calls)
     electrons    :     12.97s CPU      2.34s WALL (       1 calls)

     Called by init_run:
     wfcinit      :      2.00s CPU      0.39s WALL (       1 calls)
     potinit      :      0.01s CPU      0.01s WALL (       1 calls)
     hinit0       :      0.02s CPU      0.02s WALL (       1 calls)

     Called by electrons:
     c_bands      :     11.15s CPU      2.03s WALL (       4 calls)
     sum_band     :      1.45s CPU      0.26s WALL (       4 calls)
     v_of_rho     :      0.31s CPU      0.06s WALL (       4 calls)
     mix_rho      :      0.03s CPU      0.00s WALL (       4 calls)

     Called by c_bands:
     init_us_2    :      0.62s CPU      0.10s WALL (     234 calls)
     cegterg      :     10.16s CPU      1.85s WALL (     104 calls)

     Called by *egterg:
     cdiaghg      :      0.11s CPU      0.02s WALL (     528 calls)
     h_psi        :     10.57s CPU      1.95s WALL (     580 calls)
     g_psi        :      0.08s CPU      0.01s WALL (     450 calls)

     Called by h_psi:
     h_psi:calbec :      0.49s CPU      0.09s WALL (     580 calls)
     vloc_psi     :      9.05s CPU      1.65s WALL (     580 calls)
     add_vuspsi   :      0.99s CPU      0.20s WALL (     580 calls)

     General routines
     calbec       :      0.48s CPU      0.09s WALL (     580 calls)
     fft          :      0.13s CPU      0.02s WALL (      41 calls)
     ffts         :      0.01s CPU      0.00s WALL (       4 calls)
     fftw         :      8.84s CPU      1.61s WALL (    5112 calls)

     Parallel routines

     PWSCF        :     15.12s CPU      2.82s WALL


   This run was terminated on:  21:25:37  19Mar2023            

=------------------------------------------------------------------------------=
   JOB DONE.
=------------------------------------------------------------------------------=
