
     Program PWSCF v.6.7MaX starts on 19Jan2023 at 21:29:32 

     This program is part of the open-source Quantum ESPRESSO suite
     for quantum simulation of materials; please cite
         "P. Giannozzi et al., J. Phys.:Condens. Matter 21 395502 (2009);
         "P. Giannozzi et al., J. Phys.:Condens. Matter 29 465901 (2017);
          URL http://www.quantum-espresso.org", 
     in publications or presentations arising from this work. More details at
     http://www.quantum-espresso.org/quote

     Parallel version (MPI), running on     1 processors

     MPI processes distributed on     1 nodes
     Waiting for input...
     Reading input from standard input
Warning: card SENT FROM MAIL FOR WINDOWS ignored

     Current dimensions of program PWSCF are:
     Max number of different atomic species (ntypx) = 10
     Max number of k-points (npk) =  40000
     Max angular momentum in pseudopotentials (lmaxx) =  3
     file K.pbe-mt_fhi.UPF: wavefunction(s)  4p 3d 4f renormalized

     Subspace diagonalization in iterative solution of the eigenvalue problem:
     a serial algorithm will be used


     G-vector sticks info
     --------------------
     sticks:   dense  smooth     PW     G-vecs:    dense   smooth      PW
     Sum        1403    1403    411                33405    33405    5233



     bravais-lattice index     =            3
     lattice parameter (alat)  =      10.2000  a.u.
     unit-cell volume          =     530.6040 (a.u.)^3
     number of atoms/cell      =            1
     number of atomic types    =            1
     number of electrons       =         1.00
     number of Kohn-Sham states=            5
     kinetic-energy cutoff     =      60.0000  Ry
     charge density cutoff     =     240.0000  Ry
     scf convergence threshold =      1.0E-06
     mixing beta               =       0.7000
     number of iterations used =            8  plain     mixing
     Exchange-correlation= PBE
                           (   1   4   3   4   0   0   0)

     celldm(1)=  10.200000  celldm(2)=   0.000000  celldm(3)=   0.000000
     celldm(4)=   0.000000  celldm(5)=   0.000000  celldm(6)=   0.000000

     crystal axes: (cart. coord. in units of alat)
               a(1) = (   0.500000   0.500000   0.500000 )  
               a(2) = (  -0.500000   0.500000   0.500000 )  
               a(3) = (  -0.500000  -0.500000   0.500000 )  

     reciprocal axes: (cart. coord. in units 2 pi/alat)
               b(1) = (  1.000000  0.000000  1.000000 )  
               b(2) = ( -1.000000  1.000000  0.000000 )  
               b(3) = (  0.000000 -1.000000  1.000000 )  


     PseudoPot. # 1 for K  read from file:
     ./K.pbe-mt_fhi.UPF
     MD5 check sum: be3a3788e029af498c3454134aaf9ef1
     Pseudo is Norm-conserving + core correction, Zval =  1.0
     Generated using FHI98PP, converted with fhi2upf.x v.5.0.2
     Using radial grid of  509 points,  3 beta functions with: 
                l(1) =   1
                l(2) =   2
                l(3) =   3

     atomic species   valence    mass     pseudopotential
        K              1.00    39.09830     K ( 1.00)

     48 Sym. Ops., with inversion, found



   Cartesian axes

     site n.     atom                  positions (alat units)
         1           K   tau(   1) = (   0.0000000   0.0000000   0.0000000  )

     number of k points=    26  Marzari-Vanderbilt smearing, width (Ry)=  0.0400
                       cart. coord. in units 2pi/alat
        k(    1) = (   0.0000000   0.0000000   0.1250000), wk =   0.0234375
        k(    2) = (   0.0000000  -0.1250000   0.2500000), wk =   0.0937500
        k(    3) = (   0.0000000  -0.2500000   0.3750000), wk =   0.0937500
        k(    4) = (   0.0000000  -0.3750000   0.5000000), wk =   0.0937500
        k(    5) = (  -0.1250000   0.1250000   0.1250000), wk =   0.0312500
        k(    6) = (  -0.1250000  -0.1250000   0.3750000), wk =   0.0937500
        k(    7) = (  -0.1250000  -0.2500000   0.5000000), wk =   0.1875000
        k(    8) = (  -0.1250000   0.6250000  -0.3750000), wk =   0.0937500
        k(    9) = (  -0.2500000   0.2500000   0.1250000), wk =   0.0937500
        k(   10) = (  -0.2500000   0.7500000  -0.3750000), wk =   0.0937500
        k(   11) = (  -0.3750000   0.3750000   0.1250000), wk =   0.0937500
        k(   12) = (  -0.3750000   0.2500000   0.2500000), wk =   0.0937500
        k(   13) = (   0.5000000  -0.5000000   0.1250000), wk =   0.0468750
        k(   14) = (   0.5000000  -0.6250000   0.2500000), wk =   0.1875000
        k(   15) = (   0.3750000  -0.6250000   0.3750000), wk =   0.0312500
        k(   16) = (   0.0000000   0.0000000   0.3750000), wk =   0.0234375
        k(   17) = (   0.0000000  -0.1250000   0.5000000), wk =   0.0937500
        k(   18) = (   0.0000000  -0.2500000   0.6250000), wk =   0.0937500
        k(   19) = (  -0.1250000  -0.1250000   0.6250000), wk =   0.0937500
        k(   20) = (  -0.1250000   0.7500000  -0.2500000), wk =   0.0937500
        k(   21) = (   0.6250000  -0.6250000   0.3750000), wk =   0.0312500
        k(   22) = (   0.5000000  -0.5000000   0.3750000), wk =   0.0468750
        k(   23) = (   0.0000000   0.0000000   0.6250000), wk =   0.0234375
        k(   24) = (   0.0000000  -0.1250000   0.7500000), wk =   0.0937500
        k(   25) = (  -0.1250000   0.8750000  -0.1250000), wk =   0.0312500
        k(   26) = (   0.0000000   0.0000000   0.8750000), wk =   0.0234375

     Dense  grid:    33405 G-vectors     FFT dimensions: (  45,  45,  45)

     Estimated max dynamical RAM per process >      32.21 MB

     Initial potential from superposition of free atoms

     starting charge    0.98381, renormalised to    1.00000
     Starting wfcs are   16 randomized atomic wfcs

     total cpu time spent up to now is        1.0 secs

     Self-consistent Calculation

     iteration #  1     ecut=    60.00 Ry     beta= 0.70
     Davidson diagonalization with overlap
     ethr =  1.00E-02,  avg # of iterations =  7.1

     Threshold (ethr) on eigenvalues was too large:
     Diagonalizing with lowered threshold

     Davidson diagonalization with overlap
     ethr =  5.42E-05,  avg # of iterations = 10.8

     total cpu time spent up to now is        5.6 secs

     total energy              =      -1.02713245 Ry
     estimated scf accuracy    <       0.00062181 Ry

     iteration #  2     ecut=    60.00 Ry     beta= 0.70
     Davidson diagonalization with overlap
     ethr =  6.22E-05,  avg # of iterations =  1.0

     total cpu time spent up to now is        6.5 secs

     total energy              =      -1.02716087 Ry
     estimated scf accuracy    <       0.00006163 Ry

     iteration #  3     ecut=    60.00 Ry     beta= 0.70
     Davidson diagonalization with overlap
     c_bands:  1 eigenvalues not converged
     ethr =  6.16E-06,  avg # of iterations =  4.8

     total cpu time spent up to now is        7.7 secs

     End of self-consistent calculation

          k = 0.0000 0.0000 0.1250 (  4145 PWs)   bands (ev):

    -2.4450   3.7798   3.7798   3.9476   4.4125

          k = 0.0000-0.1250 0.2500 (  4163 PWs)   bands (ev):

    -2.1115   3.0716   3.4368   4.1429   4.1708

          k = 0.0000-0.2500 0.3750 (  4163 PWs)   bands (ev):

    -1.4597   1.8774   3.0665   4.1426   4.6165

          k = 0.0000-0.3750 0.5000 (  4158 PWs)   bands (ev):

    -0.5260   0.6294   2.8527   4.0436   5.0405

          k =-0.1250 0.1250 0.1250 (  4168 PWs)   bands (ev):

    -2.2776   3.4428   3.4430   4.0522   4.5987

          k =-0.1250-0.1250 0.3750 (  4163 PWs)   bands (ev):

    -1.6206   2.4215   2.8827   4.0011   4.4024

          k =-0.1250-0.2500 0.5000 (  4163 PWs)   bands (ev):

    -0.8310   1.3755   2.4437   3.9952   4.5777

          k =-0.1250 0.6250-0.3750 (  4169 PWs)   bands (ev):

     0.1259   0.2893   2.3058   3.8887   4.9288

          k =-0.2500 0.2500 0.1250 (  4153 PWs)   bands (ev):

    -1.7829   2.4727   2.9808   4.2557   4.6585

          k =-0.2500 0.7500-0.3750 (  4161 PWs)   bands (ev):

     0.0487   0.9572   1.4995   4.2616   4.3659

          k =-0.3750 0.3750 0.1250 (  4157 PWs)   bands (ev):

    -0.9855   1.2706   2.6647   4.2256   4.9323

          k =-0.3750 0.2500 0.2500 (  4170 PWs)   bands (ev):

    -1.1419   1.8648   2.2456   3.9693   4.7349

          k = 0.5000-0.5000 0.1250 (  4162 PWs)   bands (ev):

     0.0058   0.1259   2.5548   4.0815   5.1112

          k = 0.5000-0.6250 0.2500 (  4152 PWs)   bands (ev):

    -0.2329   0.8708   1.8958   3.6022   4.9083

          k = 0.3750-0.6250 0.3750 (  4159 PWs)   bands (ev):

     0.6044   0.6046   1.1376   3.3643   5.0313

          k = 0.0000 0.0000 0.3750 (  4153 PWs)   bands (ev):

    -1.7830   3.1059   3.2218   3.2219   4.3463

          k = 0.0000-0.1250 0.5000 (  4173 PWs)   bands (ev):

    -1.1426   2.0504   2.9496   3.2567   4.7305

          k = 0.0000-0.2500 0.6250 (  4164 PWs)   bands (ev):

    -0.2334   0.8932   2.7796   3.1273   4.5495

          k =-0.1250-0.1250 0.6250 (  4165 PWs)   bands (ev):

    -0.3809   1.5186   2.2122   3.4443   4.1405

          k =-0.1250 0.7500-0.2500 (  4180 PWs)   bands (ev):

     0.4792   0.7229   1.8839   3.5479   4.1741

          k = 0.6250-0.6250 0.3750 (  4153 PWs)   bands (ev):

    -0.3795   1.5234   1.5235   3.0813   5.1355

          k = 0.5000-0.5000 0.3750 (  4152 PWs)   bands (ev):

     0.4853   0.6906   1.4082   2.6934   5.1878

          k = 0.0000 0.0000 0.6250 (  4168 PWs)   bands (ev):

    -0.5305   2.0242   2.7883   2.7887   3.7121

          k = 0.0000-0.1250 0.7500 (  4179 PWs)   bands (ev):

     0.3137   1.3168   2.5653   2.6797   3.6017

          k =-0.1250 0.8750-0.1250 (  4178 PWs)   bands (ev):

     1.0255   1.0255   1.9713   3.2090   3.2091

          k = 0.0000 0.0000 0.8750 (  4188 PWs)   bands (ev):

     0.9997   1.4554   2.6104   2.6112   2.7559

     the Fermi energy is    -0.5568 ev

!    total energy              =      -1.02716451 Ry
     estimated scf accuracy    <       0.00000003 Ry
     smearing contrib. (-TS)   =      -0.00111463 Ry
     internal energy E=F+TS    =      -1.02604988 Ry

     The total energy is F=E-TS. E is the sum of the following terms:
     one-electron contribution =       0.24449255 Ry
     hartree contribution      =       0.00156432 Ry
     xc contribution           =      -0.91531915 Ry
     ewald contribution        =      -0.35678759 Ry

     convergence has been achieved in   3 iterations

     Writing output data file ./K.save/

     init_run     :      5.42s CPU      0.96s WALL (       1 calls)
     electrons    :     39.13s CPU      6.76s WALL (       1 calls)

     Called by init_run:
     wfcinit      :      5.35s CPU      0.89s WALL (       1 calls)
     potinit      :      0.02s CPU      0.03s WALL (       1 calls)
     hinit0       :      0.03s CPU      0.03s WALL (       1 calls)

     Called by electrons:
     c_bands      :     36.43s CPU      6.09s WALL (       4 calls)
     sum_band     :      2.63s CPU      0.60s WALL (       4 calls)
     v_of_rho     :      0.08s CPU      0.08s WALL (       4 calls)
     mix_rho      :      0.01s CPU      0.01s WALL (       4 calls)

     Called by c_bands:
     init_us_2    :      1.32s CPU      0.23s WALL (     234 calls)
     cegterg      :     33.67s CPU      5.65s WALL (     104 calls)

     Called by *egterg:
     cdiaghg      :      0.19s CPU      0.03s WALL (     696 calls)
     h_psi        :     35.88s CPU      6.05s WALL (     748 calls)
     g_psi        :      0.35s CPU      0.05s WALL (     618 calls)

     Called by h_psi:
     h_psi:calbec :      0.49s CPU      0.08s WALL (     748 calls)
     vloc_psi     :     34.70s CPU      5.85s WALL (     748 calls)
     add_vuspsi   :      0.55s CPU      0.10s WALL (     748 calls)

     General routines
     calbec       :      0.48s CPU      0.08s WALL (     748 calls)
     fft          :      0.03s CPU      0.03s WALL (      41 calls)
     ffts         :      0.00s CPU      0.00s WALL (       4 calls)
     fftw         :     32.50s CPU      5.57s WALL (    6094 calls)

     Parallel routines

     PWSCF        :     44.57s CPU      7.75s WALL


   This run was terminated on:  21:29:39  19Jan2023            

=------------------------------------------------------------------------------=
   JOB DONE.
=------------------------------------------------------------------------------=
