
     Program PWSCF v.6.7MaX starts on 19Mar2023 at 21:25:38 

     This program is part of the open-source Quantum ESPRESSO suite
     for quantum simulation of materials; please cite
         "P. Giannozzi et al., J. Phys.:Condens. Matter 21 395502 (2009);
         "P. Giannozzi et al., J. Phys.:Condens. Matter 29 465901 (2017);
          URL http://www.quantum-espresso.org", 
     in publications or presentations arising from this work. More details at
     http://www.quantum-espresso.org/quote

     Parallel version (MPI), running on     1 processors

     MPI processes distributed on     1 nodes
     Waiting for input...
     Reading input from standard input
Warning: card SENT FROM MAIL FOR WINDOWS ignored

     Current dimensions of program PWSCF are:
     Max number of different atomic species (ntypx) = 10
     Max number of k-points (npk) =  40000
     Max angular momentum in pseudopotentials (lmaxx) =  3
     file K.pbe-mt_fhi.UPF: wavefunction(s)  4p 3d 4f renormalized

     Subspace diagonalization in iterative solution of the eigenvalue problem:
     a serial algorithm will be used


     G-vector sticks info
     --------------------
     sticks:   dense  smooth     PW     G-vecs:    dense   smooth      PW
     Sum         945     945    283                18605    18605    3055



     bravais-lattice index     =            3
     lattice parameter (alat)  =       8.4000  a.u.
     unit-cell volume          =     296.3520 (a.u.)^3
     number of atoms/cell      =            1
     number of atomic types    =            1
     number of electrons       =         1.00
     number of Kohn-Sham states=            5
     kinetic-energy cutoff     =      60.0000  Ry
     charge density cutoff     =     240.0000  Ry
     scf convergence threshold =      1.0E-06
     mixing beta               =       0.7000
     number of iterations used =            8  plain     mixing
     Exchange-correlation= PBE
                           (   1   4   3   4   0   0   0)

     celldm(1)=   8.400000  celldm(2)=   0.000000  celldm(3)=   0.000000
     celldm(4)=   0.000000  celldm(5)=   0.000000  celldm(6)=   0.000000

     crystal axes: (cart. coord. in units of alat)
               a(1) = (   0.500000   0.500000   0.500000 )  
               a(2) = (  -0.500000   0.500000   0.500000 )  
               a(3) = (  -0.500000  -0.500000   0.500000 )  

     reciprocal axes: (cart. coord. in units 2 pi/alat)
               b(1) = (  1.000000  0.000000  1.000000 )  
               b(2) = ( -1.000000  1.000000  0.000000 )  
               b(3) = (  0.000000 -1.000000  1.000000 )  


     PseudoPot. # 1 for K  read from file:
     ./K.pbe-mt_fhi.UPF
     MD5 check sum: be3a3788e029af498c3454134aaf9ef1
     Pseudo is Norm-conserving + core correction, Zval =  1.0
     Generated using FHI98PP, converted with fhi2upf.x v.5.0.2
     Using radial grid of  509 points,  3 beta functions with: 
                l(1) =   1
                l(2) =   2
                l(3) =   3

     atomic species   valence    mass     pseudopotential
        K              1.00    39.09830     K ( 1.00)

     48 Sym. Ops., with inversion, found



   Cartesian axes

     site n.     atom                  positions (alat units)
         1           K   tau(   1) = (   0.0000000   0.0000000   0.0000000  )

     number of k points=    26  Marzari-Vanderbilt smearing, width (Ry)=  0.0400
                       cart. coord. in units 2pi/alat
        k(    1) = (   0.0000000   0.0000000   0.1250000), wk =   0.0234375
        k(    2) = (   0.0000000  -0.1250000   0.2500000), wk =   0.0937500
        k(    3) = (   0.0000000  -0.2500000   0.3750000), wk =   0.0937500
        k(    4) = (   0.0000000  -0.3750000   0.5000000), wk =   0.0937500
        k(    5) = (  -0.1250000   0.1250000   0.1250000), wk =   0.0312500
        k(    6) = (  -0.1250000  -0.1250000   0.3750000), wk =   0.0937500
        k(    7) = (  -0.1250000  -0.2500000   0.5000000), wk =   0.1875000
        k(    8) = (  -0.1250000   0.6250000  -0.3750000), wk =   0.0937500
        k(    9) = (  -0.2500000   0.2500000   0.1250000), wk =   0.0937500
        k(   10) = (  -0.2500000   0.7500000  -0.3750000), wk =   0.0937500
        k(   11) = (  -0.3750000   0.3750000   0.1250000), wk =   0.0937500
        k(   12) = (  -0.3750000   0.2500000   0.2500000), wk =   0.0937500
        k(   13) = (   0.5000000  -0.5000000   0.1250000), wk =   0.0468750
        k(   14) = (   0.5000000  -0.6250000   0.2500000), wk =   0.1875000
        k(   15) = (   0.3750000  -0.6250000   0.3750000), wk =   0.0312500
        k(   16) = (   0.0000000   0.0000000   0.3750000), wk =   0.0234375
        k(   17) = (   0.0000000  -0.1250000   0.5000000), wk =   0.0937500
        k(   18) = (   0.0000000  -0.2500000   0.6250000), wk =   0.0937500
        k(   19) = (  -0.1250000  -0.1250000   0.6250000), wk =   0.0937500
        k(   20) = (  -0.1250000   0.7500000  -0.2500000), wk =   0.0937500
        k(   21) = (   0.6250000  -0.6250000   0.3750000), wk =   0.0312500
        k(   22) = (   0.5000000  -0.5000000   0.3750000), wk =   0.0468750
        k(   23) = (   0.0000000   0.0000000   0.6250000), wk =   0.0234375
        k(   24) = (   0.0000000  -0.1250000   0.7500000), wk =   0.0937500
        k(   25) = (  -0.1250000   0.8750000  -0.1250000), wk =   0.0312500
        k(   26) = (   0.0000000   0.0000000   0.8750000), wk =   0.0234375

     Dense  grid:    18605 G-vectors     FFT dimensions: (  36,  36,  36)

     Estimated max dynamical RAM per process >      17.90 MB

     Initial potential from superposition of free atoms

     starting charge    0.98381, renormalised to    1.00000
     Starting wfcs are   16 randomized atomic wfcs

     total cpu time spent up to now is        0.4 secs

     Self-consistent Calculation

     iteration #  1     ecut=    60.00 Ry     beta= 0.70
     Davidson diagonalization with overlap
     ethr =  1.00E-02,  avg # of iterations =  5.7

     Threshold (ethr) on eigenvalues was too large:
     Diagonalizing with lowered threshold

     Davidson diagonalization with overlap
     ethr =  1.00E-04,  avg # of iterations =  6.0

     total cpu time spent up to now is        2.0 secs

     total energy              =      -1.01499478 Ry
     estimated scf accuracy    <       0.00103684 Ry

     iteration #  2     ecut=    60.00 Ry     beta= 0.70
     Davidson diagonalization with overlap
     ethr =  1.04E-04,  avg # of iterations =  1.0

     total cpu time spent up to now is        2.3 secs

     total energy              =      -1.01502523 Ry
     estimated scf accuracy    <       0.00009616 Ry

     iteration #  3     ecut=    60.00 Ry     beta= 0.70
     Davidson diagonalization with overlap
     c_bands:  1 eigenvalues not converged
     ethr =  9.62E-06,  avg # of iterations =  4.3

     total cpu time spent up to now is        2.6 secs

     End of self-consistent calculation

          k = 0.0000 0.0000 0.1250 (  2307 PWs)   bands (ev):

    -1.8553   5.7073   5.7075   5.8992   6.6311

          k = 0.0000-0.1250 0.2500 (  2319 PWs)   bands (ev):

    -1.3541   4.9342   5.2650   6.2811   6.3426

          k = 0.0000-0.2500 0.3750 (  2318 PWs)   bands (ev):

    -0.4067   3.6159   4.7594   6.4574   7.2664

          k = 0.0000-0.3750 0.5000 (  2322 PWs)   bands (ev):

     0.8593   2.2567   4.4652   6.5757   7.5843

          k =-0.1250 0.1250 0.1250 (  2331 PWs)   bands (ev):

    -1.6023   5.2870   5.2877   6.2173   6.8785

          k =-0.1250-0.1250 0.3750 (  2329 PWs)   bands (ev):

    -0.6362   4.1268   4.7666   6.1125   6.9072

          k =-0.1250-0.2500 0.5000 (  2322 PWs)   bands (ev):

     0.4604   3.0199   4.2908   6.3069   7.4147

          k =-0.1250 0.6250-0.3750 (  2329 PWs)   bands (ev):

     1.7437   1.7711   4.1122   6.3080   7.4845

          k =-0.2500 0.2500 0.1250 (  2320 PWs)   bands (ev):

    -0.8694   4.2249   4.6927   6.8962   6.9373

          k =-0.2500 0.7500-0.3750 (  2317 PWs)   bands (ev):

     1.5748   2.5148   3.4457   6.7309   7.1220

          k =-0.3750 0.3750 0.1250 (  2312 PWs)   bands (ev):

     0.2554   2.9549   4.2835   7.0693   7.4202

          k =-0.3750 0.2500 0.2500 (  2328 PWs)   bands (ev):

     0.0449   3.4994   3.9552   7.0623   7.4790

          k = 0.5000-0.5000 0.1250 (  2324 PWs)   bands (ev):

     1.5474   1.6568   4.1409   7.0121   7.6867

          k = 0.5000-0.6250 0.2500 (  2322 PWs)   bands (ev):

     1.2491   2.4912   3.5789   7.0929   7.5667

          k = 0.3750-0.6250 0.3750 (  2337 PWs)   bands (ev):

     2.2047   2.2047   2.8976   7.5056   7.5057

          k = 0.0000 0.0000 0.3750 (  2314 PWs)   bands (ev):

    -0.8722   4.8442   5.2373   5.2385   6.4648

          k = 0.0000-0.1250 0.5000 (  2324 PWs)   bands (ev):

     0.0305   3.6712   4.9741   5.4053   7.2025

          k = 0.0000-0.2500 0.6250 (  2338 PWs)   bands (ev):

     1.2154   2.4783   4.7618   5.3853   7.2171

          k =-0.1250-0.1250 0.6250 (  2328 PWs)   bands (ev):

     1.0207   2.9935   4.4347   5.7393   6.7863

          k =-0.1250 0.7500-0.2500 (  2331 PWs)   bands (ev):

     1.9940   2.2456   4.0368   5.9372   6.8576

          k = 0.6250-0.6250 0.3750 (  2316 PWs)   bands (ev):

     1.0677   3.1311   3.1313   7.2331   7.6071

          k = 0.5000-0.5000 0.3750 (  2336 PWs)   bands (ev):

     2.1024   2.2869   3.0122   6.6321   7.6917

          k = 0.0000 0.0000 0.6250 (  2350 PWs)   bands (ev):

     0.8191   3.3250   5.1941   5.1941   6.4530

          k = 0.0000-0.1250 0.7500 (  2343 PWs)   bands (ev):

     1.7600   2.6648   5.0194   5.2546   6.4159

          k =-0.1250 0.8750-0.1250 (  2334 PWs)   bands (ev):

     2.3355   2.3355   4.6522   6.0664   6.0667

          k = 0.0000 0.0000 0.8750 (  2350 PWs)   bands (ev):

     2.2457   2.5255   5.6818   5.6823   5.7479

     the Fermi energy is     0.8128 ev

!    total energy              =      -1.01503864 Ry
     estimated scf accuracy    <       0.00000005 Ry
     smearing contrib. (-TS)   =      -0.00043573 Ry
     internal energy E=F+TS    =      -1.01460292 Ry

     The total energy is F=E-TS. E is the sum of the following terms:
     one-electron contribution =       0.40540619 Ry
     hartree contribution      =       0.00379441 Ry
     xc contribution           =      -0.99056144 Ry
     ewald contribution        =      -0.43324208 Ry

     convergence has been achieved in   3 iterations

     Writing output data file ./K.save/

     init_run     :      2.23s CPU      0.43s WALL (       1 calls)
     electrons    :     12.50s CPU      2.20s WALL (       1 calls)

     Called by init_run:
     wfcinit      :      2.18s CPU      0.38s WALL (       1 calls)
     potinit      :      0.01s CPU      0.01s WALL (       1 calls)
     hinit0       :      0.02s CPU      0.02s WALL (       1 calls)

     Called by electrons:
     c_bands      :     11.03s CPU      1.94s WALL (       4 calls)
     sum_band     :      1.23s CPU      0.22s WALL (       4 calls)
     v_of_rho     :      0.21s CPU      0.05s WALL (       4 calls)
     mix_rho      :      0.02s CPU      0.00s WALL (       4 calls)

     Called by c_bands:
     init_us_2    :      0.55s CPU      0.10s WALL (     234 calls)
     cegterg      :     10.11s CPU      1.78s WALL (     104 calls)

     Called by *egterg:
     cdiaghg      :      0.11s CPU      0.02s WALL (     521 calls)
     h_psi        :     10.32s CPU      1.79s WALL (     573 calls)
     g_psi        :      0.10s CPU      0.02s WALL (     443 calls)

     Called by h_psi:
     h_psi:calbec :      0.21s CPU      0.04s WALL (     573 calls)
     vloc_psi     :      8.99s CPU      1.51s WALL (     573 calls)
     add_vuspsi   :      1.07s CPU      0.23s WALL (     573 calls)

     General routines
     calbec       :      0.21s CPU      0.04s WALL (     573 calls)
     fft          :      0.07s CPU      0.02s WALL (      41 calls)
     ffts         :      0.01s CPU      0.00s WALL (       4 calls)
     fftw         :      8.69s CPU      1.47s WALL (    5190 calls)

     Parallel routines

     PWSCF        :     14.82s CPU      2.67s WALL


   This run was terminated on:  21:25:40  19Mar2023            

=------------------------------------------------------------------------------=
   JOB DONE.
=------------------------------------------------------------------------------=
