
     Program PWSCF v.6.7MaX starts on 19Mar2023 at 21:25:48 

     This program is part of the open-source Quantum ESPRESSO suite
     for quantum simulation of materials; please cite
         "P. Giannozzi et al., J. Phys.:Condens. Matter 21 395502 (2009);
         "P. Giannozzi et al., J. Phys.:Condens. Matter 29 465901 (2017);
          URL http://www.quantum-espresso.org", 
     in publications or presentations arising from this work. More details at
     http://www.quantum-espresso.org/quote

     Parallel version (MPI), running on     1 processors

     MPI processes distributed on     1 nodes
     Waiting for input...
     Reading input from standard input
Warning: card SENT FROM MAIL FOR WINDOWS ignored

     Current dimensions of program PWSCF are:
     Max number of different atomic species (ntypx) = 10
     Max number of k-points (npk) =  40000
     Max angular momentum in pseudopotentials (lmaxx) =  3
     file K.pbe-mt_fhi.UPF: wavefunction(s)  4p 3d 4f renormalized

     Subspace diagonalization in iterative solution of the eigenvalue problem:
     a serial algorithm will be used


     G-vector sticks info
     --------------------
     sticks:   dense  smooth     PW     G-vecs:    dense   smooth      PW
     Sum        1001    1001    291                19861    19861    3151



     bravais-lattice index     =            3
     lattice parameter (alat)  =       8.6000  a.u.
     unit-cell volume          =     318.0280 (a.u.)^3
     number of atoms/cell      =            1
     number of atomic types    =            1
     number of electrons       =         1.00
     number of Kohn-Sham states=            5
     kinetic-energy cutoff     =      60.0000  Ry
     charge density cutoff     =     240.0000  Ry
     scf convergence threshold =      1.0E-06
     mixing beta               =       0.7000
     number of iterations used =            8  plain     mixing
     Exchange-correlation= PBE
                           (   1   4   3   4   0   0   0)

     celldm(1)=   8.600000  celldm(2)=   0.000000  celldm(3)=   0.000000
     celldm(4)=   0.000000  celldm(5)=   0.000000  celldm(6)=   0.000000

     crystal axes: (cart. coord. in units of alat)
               a(1) = (   0.500000   0.500000   0.500000 )  
               a(2) = (  -0.500000   0.500000   0.500000 )  
               a(3) = (  -0.500000  -0.500000   0.500000 )  

     reciprocal axes: (cart. coord. in units 2 pi/alat)
               b(1) = (  1.000000  0.000000  1.000000 )  
               b(2) = ( -1.000000  1.000000  0.000000 )  
               b(3) = (  0.000000 -1.000000  1.000000 )  


     PseudoPot. # 1 for K  read from file:
     ./K.pbe-mt_fhi.UPF
     MD5 check sum: be3a3788e029af498c3454134aaf9ef1
     Pseudo is Norm-conserving + core correction, Zval =  1.0
     Generated using FHI98PP, converted with fhi2upf.x v.5.0.2
     Using radial grid of  509 points,  3 beta functions with: 
                l(1) =   1
                l(2) =   2
                l(3) =   3

     atomic species   valence    mass     pseudopotential
        K              1.00    39.09830     K ( 1.00)

     48 Sym. Ops., with inversion, found



   Cartesian axes

     site n.     atom                  positions (alat units)
         1           K   tau(   1) = (   0.0000000   0.0000000   0.0000000  )

     number of k points=    26  Marzari-Vanderbilt smearing, width (Ry)=  0.0400
                       cart. coord. in units 2pi/alat
        k(    1) = (   0.0000000   0.0000000   0.1250000), wk =   0.0234375
        k(    2) = (   0.0000000  -0.1250000   0.2500000), wk =   0.0937500
        k(    3) = (   0.0000000  -0.2500000   0.3750000), wk =   0.0937500
        k(    4) = (   0.0000000  -0.3750000   0.5000000), wk =   0.0937500
        k(    5) = (  -0.1250000   0.1250000   0.1250000), wk =   0.0312500
        k(    6) = (  -0.1250000  -0.1250000   0.3750000), wk =   0.0937500
        k(    7) = (  -0.1250000  -0.2500000   0.5000000), wk =   0.1875000
        k(    8) = (  -0.1250000   0.6250000  -0.3750000), wk =   0.0937500
        k(    9) = (  -0.2500000   0.2500000   0.1250000), wk =   0.0937500
        k(   10) = (  -0.2500000   0.7500000  -0.3750000), wk =   0.0937500
        k(   11) = (  -0.3750000   0.3750000   0.1250000), wk =   0.0937500
        k(   12) = (  -0.3750000   0.2500000   0.2500000), wk =   0.0937500
        k(   13) = (   0.5000000  -0.5000000   0.1250000), wk =   0.0468750
        k(   14) = (   0.5000000  -0.6250000   0.2500000), wk =   0.1875000
        k(   15) = (   0.3750000  -0.6250000   0.3750000), wk =   0.0312500
        k(   16) = (   0.0000000   0.0000000   0.3750000), wk =   0.0234375
        k(   17) = (   0.0000000  -0.1250000   0.5000000), wk =   0.0937500
        k(   18) = (   0.0000000  -0.2500000   0.6250000), wk =   0.0937500
        k(   19) = (  -0.1250000  -0.1250000   0.6250000), wk =   0.0937500
        k(   20) = (  -0.1250000   0.7500000  -0.2500000), wk =   0.0937500
        k(   21) = (   0.6250000  -0.6250000   0.3750000), wk =   0.0312500
        k(   22) = (   0.5000000  -0.5000000   0.3750000), wk =   0.0468750
        k(   23) = (   0.0000000   0.0000000   0.6250000), wk =   0.0234375
        k(   24) = (   0.0000000  -0.1250000   0.7500000), wk =   0.0937500
        k(   25) = (  -0.1250000   0.8750000  -0.1250000), wk =   0.0312500
        k(   26) = (   0.0000000   0.0000000   0.8750000), wk =   0.0234375

     Dense  grid:    19861 G-vectors     FFT dimensions: (  40,  40,  40)

     Estimated max dynamical RAM per process >      20.09 MB

     Initial potential from superposition of free atoms

     starting charge    0.98381, renormalised to    1.00000
     Starting wfcs are   16 randomized atomic wfcs

     total cpu time spent up to now is        0.6 secs

     Self-consistent Calculation

     iteration #  1     ecut=    60.00 Ry     beta= 0.70
     Davidson diagonalization with overlap
     ethr =  1.00E-02,  avg # of iterations =  5.7

     Threshold (ethr) on eigenvalues was too large:
     Diagonalizing with lowered threshold

     Davidson diagonalization with overlap
     ethr =  8.86E-05,  avg # of iterations =  7.1

     total cpu time spent up to now is        3.9 secs

     total energy              =      -1.01961547 Ry
     estimated scf accuracy    <       0.00093140 Ry

     iteration #  2     ecut=    60.00 Ry     beta= 0.70
     Davidson diagonalization with overlap
     ethr =  9.31E-05,  avg # of iterations =  1.0

     total cpu time spent up to now is        4.7 secs

     total energy              =      -1.01963790 Ry
     estimated scf accuracy    <       0.00008575 Ry

     iteration #  3     ecut=    60.00 Ry     beta= 0.70
     Davidson diagonalization with overlap
     c_bands:  1 eigenvalues not converged
     ethr =  8.58E-06,  avg # of iterations =  4.6

     total cpu time spent up to now is        5.5 secs

     End of self-consistent calculation

          k = 0.0000 0.0000 0.1250 (  2511 PWs)   bands (ev):

    -1.9744   5.4453   5.4454   5.6304   6.3237

          k = 0.0000-0.1250 0.2500 (  2502 PWs)   bands (ev):

    -1.4979   4.6814   5.0185   5.9903   6.0473

          k = 0.0000-0.2500 0.3750 (  2489 PWs)   bands (ev):

    -0.5920   3.3746   4.5319   6.1421   6.9056

          k = 0.0000-0.3750 0.5000 (  2494 PWs)   bands (ev):

     0.6356   2.0117   4.2490   6.2314   7.2298

          k =-0.1250 0.1250 0.1250 (  2493 PWs)   bands (ev):

    -1.7342   5.0373   5.0374   5.9213   6.5623

          k =-0.1250-0.1250 0.3750 (  2495 PWs)   bands (ev):

    -0.8123   3.8937   4.5151   5.8234   6.5648

          k =-0.1250-0.2500 0.5000 (  2502 PWs)   bands (ev):

     0.2448   2.7878   4.0442   5.9916   7.0336

          k =-0.1250 0.6250-0.3750 (  2500 PWs)   bands (ev):

     1.4795   1.5588   3.8713   5.9765   7.1217

          k =-0.2500 0.2500 0.1250 (  2492 PWs)   bands (ev):

    -1.0357   3.9859   4.4618   6.5544   6.6018

          k =-0.2500 0.7500-0.3750 (  2506 PWs)   bands (ev):

     1.3345   2.2856   3.1833   6.4015   6.7451

          k =-0.3750 0.3750 0.1250 (  2500 PWs)   bands (ev):

     0.0458   2.7137   4.0657   6.7168   7.0766

          k =-0.3750 0.2500 0.2500 (  2488 PWs)   bands (ev):

    -0.1590   3.2706   3.7233   6.7360   7.0496

          k = 0.5000-0.5000 0.1250 (  2500 PWs)   bands (ev):

     1.3436   1.3806   3.9275   6.6378   7.3377

          k = 0.5000-0.6250 0.2500 (  2489 PWs)   bands (ev):

     1.0107   2.2530   3.3497   6.6738   7.1800

          k = 0.3750-0.6250 0.3750 (  2487 PWs)   bands (ev):

     1.9579   1.9580   2.6609   7.1603   7.1605

          k = 0.0000 0.0000 0.3750 (  2495 PWs)   bands (ev):

    -1.0380   4.6065   4.9628   4.9628   6.1767

          k = 0.0000-0.1250 0.5000 (  2499 PWs)   bands (ev):

    -0.1700   3.4528   4.6998   5.1083   6.8596

          k = 0.0000-0.2500 0.6250 (  2503 PWs)   bands (ev):

     0.9856   2.2524   4.4948   5.0717   6.8313

          k =-0.1250-0.1250 0.6250 (  2487 PWs)   bands (ev):

     0.7963   2.7914   4.1318   5.4168   6.4082

          k =-0.1250 0.7500-0.2500 (  2504 PWs)   bands (ev):

     1.7639   2.0321   3.7377   5.5985   6.4633

          k = 0.6250-0.6250 0.3750 (  2472 PWs)   bands (ev):

     0.8313   2.9020   2.9020   6.5989   7.2620

          k = 0.5000-0.5000 0.3750 (  2472 PWs)   bands (ev):

     1.8473   2.0512   2.7818   6.0286   7.3377

          k = 0.0000 0.0000 0.6250 (  2506 PWs)   bands (ev):

     0.6015   3.1498   4.8571   4.8571   6.0713

          k = 0.0000-0.1250 0.7500 (  2509 PWs)   bands (ev):

     1.5466   2.4867   4.6594   4.8907   5.9900

          k =-0.1250 0.8750-0.1250 (  2499 PWs)   bands (ev):

     2.1564   2.1566   4.2644   5.6314   5.6318

          k = 0.0000 0.0000 0.8750 (  2490 PWs)   bands (ev):

     2.0794   2.3819   5.2165   5.2177   5.2782

     the Fermi energy is     0.5895 ev

!    total energy              =      -1.01964812 Ry
     estimated scf accuracy    <       0.00000003 Ry
     smearing contrib. (-TS)   =      -0.00049299 Ry
     internal energy E=F+TS    =      -1.01915513 Ry

     The total energy is F=E-TS. E is the sum of the following terms:
     one-electron contribution =       0.38004358 Ry
     hartree contribution      =       0.00351325 Ry
     xc contribution           =      -0.97954528 Ry
     ewald contribution        =      -0.42316668 Ry

     convergence has been achieved in   3 iterations

     Writing output data file ./K.save/

     init_run     :      3.34s CPU      0.62s WALL (       1 calls)
     electrons    :     24.39s CPU      4.85s WALL (       1 calls)

     Called by init_run:
     wfcinit      :      3.29s CPU      0.56s WALL (       1 calls)
     potinit      :      0.01s CPU      0.02s WALL (       1 calls)
     hinit0       :      0.02s CPU      0.03s WALL (       1 calls)

     Called by electrons:
     c_bands      :     22.12s CPU      4.32s WALL (       4 calls)
     sum_band     :      2.20s CPU      0.47s WALL (       4 calls)
     v_of_rho     :      0.07s CPU      0.08s WALL (       4 calls)
     mix_rho      :      0.00s CPU      0.01s WALL (       4 calls)

     Called by c_bands:
     init_us_2    :      0.79s CPU      0.14s WALL (     234 calls)
     cegterg      :     20.79s CPU      4.05s WALL (     104 calls)

     Called by *egterg:
     cdiaghg      :      0.17s CPU      0.03s WALL (     557 calls)
     h_psi        :     21.04s CPU      4.04s WALL (     609 calls)
     g_psi        :      0.13s CPU      0.02s WALL (     479 calls)

     Called by h_psi:
     h_psi:calbec :      1.18s CPU      0.26s WALL (     609 calls)
     vloc_psi     :     16.71s CPU      3.10s WALL (     609 calls)
     add_vuspsi   :      3.09s CPU      0.66s WALL (     609 calls)

     General routines
     calbec       :      1.17s CPU      0.26s WALL (     609 calls)
     fft          :      0.03s CPU      0.03s WALL (      41 calls)
     ffts         :      0.00s CPU      0.00s WALL (       4 calls)
     fftw         :     16.26s CPU      3.04s WALL (    5326 calls)

     Parallel routines

     PWSCF        :     27.75s CPU      5.50s WALL


   This run was terminated on:  21:25:53  19Mar2023            

=------------------------------------------------------------------------------=
   JOB DONE.
=------------------------------------------------------------------------------=
