
     Program PWSCF v.6.7MaX starts on 19Jan2023 at 21:29:59 

     This program is part of the open-source Quantum ESPRESSO suite
     for quantum simulation of materials; please cite
         "P. Giannozzi et al., J. Phys.:Condens. Matter 21 395502 (2009);
         "P. Giannozzi et al., J. Phys.:Condens. Matter 29 465901 (2017);
          URL http://www.quantum-espresso.org", 
     in publications or presentations arising from this work. More details at
     http://www.quantum-espresso.org/quote

     Parallel version (MPI), running on     1 processors

     MPI processes distributed on     1 nodes
     Waiting for input...
     Reading input from standard input
Warning: card SENT FROM MAIL FOR WINDOWS ignored

     Current dimensions of program PWSCF are:
     Max number of different atomic species (ntypx) = 10
     Max number of k-points (npk) =  40000
     Max angular momentum in pseudopotentials (lmaxx) =  3
     file K.pbe-mt_fhi.UPF: wavefunction(s)  4p 3d 4f renormalized

     Subspace diagonalization in iterative solution of the eigenvalue problem:
     a serial algorithm will be used


     G-vector sticks info
     --------------------
     sticks:   dense  smooth     PW     G-vecs:    dense   smooth      PW
     Sum        1489    1489    419                36417    36417    5481



     bravais-lattice index     =            3
     lattice parameter (alat)  =      10.5000  a.u.
     unit-cell volume          =     578.8125 (a.u.)^3
     number of atoms/cell      =            1
     number of atomic types    =            1
     number of electrons       =         1.00
     number of Kohn-Sham states=            5
     kinetic-energy cutoff     =      60.0000  Ry
     charge density cutoff     =     240.0000  Ry
     scf convergence threshold =      1.0E-06
     mixing beta               =       0.7000
     number of iterations used =            8  plain     mixing
     Exchange-correlation= PBE
                           (   1   4   3   4   0   0   0)

     celldm(1)=  10.500000  celldm(2)=   0.000000  celldm(3)=   0.000000
     celldm(4)=   0.000000  celldm(5)=   0.000000  celldm(6)=   0.000000

     crystal axes: (cart. coord. in units of alat)
               a(1) = (   0.500000   0.500000   0.500000 )  
               a(2) = (  -0.500000   0.500000   0.500000 )  
               a(3) = (  -0.500000  -0.500000   0.500000 )  

     reciprocal axes: (cart. coord. in units 2 pi/alat)
               b(1) = (  1.000000  0.000000  1.000000 )  
               b(2) = ( -1.000000  1.000000  0.000000 )  
               b(3) = (  0.000000 -1.000000  1.000000 )  


     PseudoPot. # 1 for K  read from file:
     ./K.pbe-mt_fhi.UPF
     MD5 check sum: be3a3788e029af498c3454134aaf9ef1
     Pseudo is Norm-conserving + core correction, Zval =  1.0
     Generated using FHI98PP, converted with fhi2upf.x v.5.0.2
     Using radial grid of  509 points,  3 beta functions with: 
                l(1) =   1
                l(2) =   2
                l(3) =   3

     atomic species   valence    mass     pseudopotential
        K              1.00    39.09830     K ( 1.00)

     48 Sym. Ops., with inversion, found



   Cartesian axes

     site n.     atom                  positions (alat units)
         1           K   tau(   1) = (   0.0000000   0.0000000   0.0000000  )

     number of k points=    26  Marzari-Vanderbilt smearing, width (Ry)=  0.0400
                       cart. coord. in units 2pi/alat
        k(    1) = (   0.0000000   0.0000000   0.1250000), wk =   0.0234375
        k(    2) = (   0.0000000  -0.1250000   0.2500000), wk =   0.0937500
        k(    3) = (   0.0000000  -0.2500000   0.3750000), wk =   0.0937500
        k(    4) = (   0.0000000  -0.3750000   0.5000000), wk =   0.0937500
        k(    5) = (  -0.1250000   0.1250000   0.1250000), wk =   0.0312500
        k(    6) = (  -0.1250000  -0.1250000   0.3750000), wk =   0.0937500
        k(    7) = (  -0.1250000  -0.2500000   0.5000000), wk =   0.1875000
        k(    8) = (  -0.1250000   0.6250000  -0.3750000), wk =   0.0937500
        k(    9) = (  -0.2500000   0.2500000   0.1250000), wk =   0.0937500
        k(   10) = (  -0.2500000   0.7500000  -0.3750000), wk =   0.0937500
        k(   11) = (  -0.3750000   0.3750000   0.1250000), wk =   0.0937500
        k(   12) = (  -0.3750000   0.2500000   0.2500000), wk =   0.0937500
        k(   13) = (   0.5000000  -0.5000000   0.1250000), wk =   0.0468750
        k(   14) = (   0.5000000  -0.6250000   0.2500000), wk =   0.1875000
        k(   15) = (   0.3750000  -0.6250000   0.3750000), wk =   0.0312500
        k(   16) = (   0.0000000   0.0000000   0.3750000), wk =   0.0234375
        k(   17) = (   0.0000000  -0.1250000   0.5000000), wk =   0.0937500
        k(   18) = (   0.0000000  -0.2500000   0.6250000), wk =   0.0937500
        k(   19) = (  -0.1250000  -0.1250000   0.6250000), wk =   0.0937500
        k(   20) = (  -0.1250000   0.7500000  -0.2500000), wk =   0.0937500
        k(   21) = (   0.6250000  -0.6250000   0.3750000), wk =   0.0312500
        k(   22) = (   0.5000000  -0.5000000   0.3750000), wk =   0.0468750
        k(   23) = (   0.0000000   0.0000000   0.6250000), wk =   0.0234375
        k(   24) = (   0.0000000  -0.1250000   0.7500000), wk =   0.0937500
        k(   25) = (  -0.1250000   0.8750000  -0.1250000), wk =   0.0312500
        k(   26) = (   0.0000000   0.0000000   0.8750000), wk =   0.0234375

     Dense  grid:    36417 G-vectors     FFT dimensions: (  45,  45,  45)

     Estimated max dynamical RAM per process >      34.52 MB

     Initial potential from superposition of free atoms

     starting charge    0.98381, renormalised to    1.00000
     Starting wfcs are   16 randomized atomic wfcs

     total cpu time spent up to now is        0.9 secs

     Self-consistent Calculation

     iteration #  1     ecut=    60.00 Ry     beta= 0.70
     Davidson diagonalization with overlap
     ethr =  1.00E-02,  avg # of iterations =  7.5

     Threshold (ethr) on eigenvalues was too large:
     Diagonalizing with lowered threshold

     Davidson diagonalization with overlap
     ethr =  5.67E-05,  avg # of iterations = 10.5

     total cpu time spent up to now is        5.7 secs

     total energy              =      -1.02531042 Ry
     estimated scf accuracy    <       0.00064175 Ry

     iteration #  2     ecut=    60.00 Ry     beta= 0.70
     Davidson diagonalization with overlap
     ethr =  6.42E-05,  avg # of iterations =  1.0

     total cpu time spent up to now is        6.6 secs

     total energy              =      -1.02534317 Ry
     estimated scf accuracy    <       0.00006484 Ry

     iteration #  3     ecut=    60.00 Ry     beta= 0.70
     Davidson diagonalization with overlap
     c_bands:  1 eigenvalues not converged
     ethr =  6.48E-06,  avg # of iterations =  5.5

     total cpu time spent up to now is        8.0 secs

     End of self-consistent calculation

          k = 0.0000 0.0000 0.1250 (  4545 PWs)   bands (ev):

    -2.4799   3.5330   3.5332   3.6990   4.1333

          k = 0.0000-0.1250 0.2500 (  4539 PWs)   bands (ev):

    -2.1656   2.8331   3.2007   3.8728   3.8946

          k = 0.0000-0.2500 0.3750 (  4539 PWs)   bands (ev):

    -1.5495   1.6616   2.8467   3.8444   4.2753

          k = 0.0000-0.3750 0.5000 (  4543 PWs)   bands (ev):

    -0.6618   0.4469   2.6432   3.7196   4.7201

          k =-0.1250 0.1250 0.1250 (  4543 PWs)   bands (ev):

    -2.3223   3.2060   3.2061   3.7723   4.3145

          k =-0.1250-0.1250 0.3750 (  4527 PWs)   bands (ev):

    -1.7018   2.2064   2.6340   3.7343   4.0803

          k =-0.1250-0.2500 0.5000 (  4547 PWs)   bands (ev):

    -0.9524   1.1764   2.2020   3.6979   4.2142

          k =-0.1250 0.6250-0.3750 (  4557 PWs)   bands (ev):

    -0.0310   0.1138   2.0700   3.5841   4.6179

          k =-0.2500 0.2500 0.1250 (  4535 PWs)   bands (ev):

    -1.8553   2.2502   2.7604   3.9031   4.3671

          k =-0.2500 0.7500-0.3750 (  4559 PWs)   bands (ev):

    -0.1089   0.7812   1.2520   3.8946   4.0732

          k =-0.3750 0.3750 0.1250 (  4538 PWs)   bands (ev):

    -1.0996   1.0704   2.4562   3.8129   4.6078

          k =-0.3750 0.2500 0.2500 (  4540 PWs)   bands (ev):

    -1.2482   1.6651   2.0244   3.5336   4.4402

          k = 0.5000-0.5000 0.1250 (  4556 PWs)   bands (ev):

    -0.1489  -0.0421   2.3504   3.6767   4.7241

          k = 0.5000-0.6250 0.2500 (  4545 PWs)   bands (ev):

    -0.3809   0.6851   1.6813   3.1851   4.5985

          k = 0.3750-0.6250 0.3750 (  4544 PWs)   bands (ev):

     0.4357   0.4360   0.9084   2.9702   4.7262

          k = 0.0000 0.0000 0.3750 (  4533 PWs)   bands (ev):

    -1.8553   2.8858   2.9646   2.9650   4.0835

          k = 0.0000-0.1250 0.5000 (  4535 PWs)   bands (ev):

    -1.2485   1.8412   2.6908   2.9884   4.2593

          k = 0.0000-0.2500 0.6250 (  4542 PWs)   bands (ev):

    -0.3805   0.7046   2.5245   2.8479   4.2305

          k =-0.1250-0.1250 0.6250 (  4546 PWs)   bands (ev):

    -0.5215   1.3350   1.9334   3.1671   3.8140

          k =-0.1250 0.7500-0.2500 (  4546 PWs)   bands (ev):

     0.3168   0.5371   1.6236   3.2591   3.8627

          k = 0.6250-0.6250 0.3750 (  4555 PWs)   bands (ev):

    -0.5214   1.3324   1.3326   2.6378   4.8303

          k = 0.5000-0.5000 0.3750 (  4552 PWs)   bands (ev):

     0.3188   0.5075   1.2201   2.2778   4.8880

          k = 0.0000 0.0000 0.6250 (  4541 PWs)   bands (ev):

    -0.6644   1.8577   2.4975   2.4979   3.3630

          k = 0.0000-0.1250 0.7500 (  4541 PWs)   bands (ev):

     0.1512   1.1380   2.2888   2.3757   3.2843

          k =-0.1250 0.8750-0.1250 (  4538 PWs)   bands (ev):

     0.8624   0.8625   1.6624   2.9015   2.9017

          k = 0.0000 0.0000 0.8750 (  4521 PWs)   bands (ev):

     0.8379   1.3181   2.2810   2.2811   2.4432

     the Fermi energy is    -0.6901 ev

!    total energy              =      -1.02534666 Ry
     estimated scf accuracy    <       0.00000004 Ry
     smearing contrib. (-TS)   =      -0.00124073 Ry
     internal energy E=F+TS    =      -1.02410593 Ry

     The total energy is F=E-TS. E is the sum of the following terms:
     one-electron contribution =       0.22777822 Ry
     hartree contribution      =       0.00128565 Ry
     xc contribution           =      -0.90657614 Ry
     ewald contribution        =      -0.34659366 Ry

     convergence has been achieved in   3 iterations

     Writing output data file ./K.save/

     init_run     :      5.05s CPU      0.90s WALL (       1 calls)
     electrons    :     42.12s CPU      7.11s WALL (       1 calls)

     Called by init_run:
     wfcinit      :      4.98s CPU      0.82s WALL (       1 calls)
     potinit      :      0.02s CPU      0.03s WALL (       1 calls)
     hinit0       :      0.03s CPU      0.03s WALL (       1 calls)

     Called by electrons:
     c_bands      :     39.44s CPU      6.43s WALL (       4 calls)
     sum_band     :      2.61s CPU      0.61s WALL (       4 calls)
     v_of_rho     :      0.08s CPU      0.08s WALL (       4 calls)
     mix_rho      :      0.00s CPU      0.01s WALL (       4 calls)

     Called by c_bands:
     init_us_2    :      1.42s CPU      0.25s WALL (     234 calls)
     cegterg      :     36.41s CPU      5.95s WALL (     104 calls)

     Called by *egterg:
     cdiaghg      :      0.20s CPU      0.03s WALL (     716 calls)
     h_psi        :     38.34s CPU      6.30s WALL (     768 calls)
     g_psi        :      0.36s CPU      0.06s WALL (     638 calls)

     Called by h_psi:
     h_psi:calbec :      0.63s CPU      0.11s WALL (     768 calls)
     vloc_psi     :     37.19s CPU      6.09s WALL (     768 calls)
     add_vuspsi   :      0.36s CPU      0.07s WALL (     768 calls)

     General routines
     calbec       :      0.62s CPU      0.11s WALL (     768 calls)
     fft          :      0.03s CPU      0.03s WALL (      41 calls)
     ffts         :      0.00s CPU      0.00s WALL (       4 calls)
     fftw         :     34.79s CPU      5.81s WALL (    6132 calls)

     Parallel routines

     PWSCF        :     47.20s CPU      8.03s WALL


   This run was terminated on:  21:30: 7  19Jan2023            

=------------------------------------------------------------------------------=
   JOB DONE.
=------------------------------------------------------------------------------=
