
     Program PWSCF v.6.7MaX starts on 19Jan2023 at 21:28:49 

     This program is part of the open-source Quantum ESPRESSO suite
     for quantum simulation of materials; please cite
         "P. Giannozzi et al., J. Phys.:Condens. Matter 21 395502 (2009);
         "P. Giannozzi et al., J. Phys.:Condens. Matter 29 465901 (2017);
          URL http://www.quantum-espresso.org", 
     in publications or presentations arising from this work. More details at
     http://www.quantum-espresso.org/quote

     Parallel version (MPI), running on     1 processors

     MPI processes distributed on     1 nodes
     Waiting for input...
     Reading input from standard input
Warning: card SENT FROM MAIL FOR WINDOWS ignored

     Current dimensions of program PWSCF are:
     Max number of different atomic species (ntypx) = 10
     Max number of k-points (npk) =  40000
     Max angular momentum in pseudopotentials (lmaxx) =  3
     file K.pbe-mt_fhi.UPF: wavefunction(s)  4p 3d 4f renormalized

     Subspace diagonalization in iterative solution of the eigenvalue problem:
     a serial algorithm will be used


     G-vector sticks info
     --------------------
     sticks:   dense  smooth     PW     G-vecs:    dense   smooth      PW
     Sum        1267    1267    375                28675    28675    4537



     bravais-lattice index     =            3
     lattice parameter (alat)  =       9.7000  a.u.
     unit-cell volume          =     456.3365 (a.u.)^3
     number of atoms/cell      =            1
     number of atomic types    =            1
     number of electrons       =         1.00
     number of Kohn-Sham states=            5
     kinetic-energy cutoff     =      60.0000  Ry
     charge density cutoff     =     240.0000  Ry
     scf convergence threshold =      1.0E-06
     mixing beta               =       0.7000
     number of iterations used =            8  plain     mixing
     Exchange-correlation= PBE
                           (   1   4   3   4   0   0   0)

     celldm(1)=   9.700000  celldm(2)=   0.000000  celldm(3)=   0.000000
     celldm(4)=   0.000000  celldm(5)=   0.000000  celldm(6)=   0.000000

     crystal axes: (cart. coord. in units of alat)
               a(1) = (   0.500000   0.500000   0.500000 )  
               a(2) = (  -0.500000   0.500000   0.500000 )  
               a(3) = (  -0.500000  -0.500000   0.500000 )  

     reciprocal axes: (cart. coord. in units 2 pi/alat)
               b(1) = (  1.000000  0.000000  1.000000 )  
               b(2) = ( -1.000000  1.000000  0.000000 )  
               b(3) = (  0.000000 -1.000000  1.000000 )  


     PseudoPot. # 1 for K  read from file:
     ./K.pbe-mt_fhi.UPF
     MD5 check sum: be3a3788e029af498c3454134aaf9ef1
     Pseudo is Norm-conserving + core correction, Zval =  1.0
     Generated using FHI98PP, converted with fhi2upf.x v.5.0.2
     Using radial grid of  509 points,  3 beta functions with: 
                l(1) =   1
                l(2) =   2
                l(3) =   3

     atomic species   valence    mass     pseudopotential
        K              1.00    39.09830     K ( 1.00)

     48 Sym. Ops., with inversion, found



   Cartesian axes

     site n.     atom                  positions (alat units)
         1           K   tau(   1) = (   0.0000000   0.0000000   0.0000000  )

     number of k points=    26  Marzari-Vanderbilt smearing, width (Ry)=  0.0400
                       cart. coord. in units 2pi/alat
        k(    1) = (   0.0000000   0.0000000   0.1250000), wk =   0.0234375
        k(    2) = (   0.0000000  -0.1250000   0.2500000), wk =   0.0937500
        k(    3) = (   0.0000000  -0.2500000   0.3750000), wk =   0.0937500
        k(    4) = (   0.0000000  -0.3750000   0.5000000), wk =   0.0937500
        k(    5) = (  -0.1250000   0.1250000   0.1250000), wk =   0.0312500
        k(    6) = (  -0.1250000  -0.1250000   0.3750000), wk =   0.0937500
        k(    7) = (  -0.1250000  -0.2500000   0.5000000), wk =   0.1875000
        k(    8) = (  -0.1250000   0.6250000  -0.3750000), wk =   0.0937500
        k(    9) = (  -0.2500000   0.2500000   0.1250000), wk =   0.0937500
        k(   10) = (  -0.2500000   0.7500000  -0.3750000), wk =   0.0937500
        k(   11) = (  -0.3750000   0.3750000   0.1250000), wk =   0.0937500
        k(   12) = (  -0.3750000   0.2500000   0.2500000), wk =   0.0937500
        k(   13) = (   0.5000000  -0.5000000   0.1250000), wk =   0.0468750
        k(   14) = (   0.5000000  -0.6250000   0.2500000), wk =   0.1875000
        k(   15) = (   0.3750000  -0.6250000   0.3750000), wk =   0.0312500
        k(   16) = (   0.0000000   0.0000000   0.3750000), wk =   0.0234375
        k(   17) = (   0.0000000  -0.1250000   0.5000000), wk =   0.0937500
        k(   18) = (   0.0000000  -0.2500000   0.6250000), wk =   0.0937500
        k(   19) = (  -0.1250000  -0.1250000   0.6250000), wk =   0.0937500
        k(   20) = (  -0.1250000   0.7500000  -0.2500000), wk =   0.0937500
        k(   21) = (   0.6250000  -0.6250000   0.3750000), wk =   0.0312500
        k(   22) = (   0.5000000  -0.5000000   0.3750000), wk =   0.0468750
        k(   23) = (   0.0000000   0.0000000   0.6250000), wk =   0.0234375
        k(   24) = (   0.0000000  -0.1250000   0.7500000), wk =   0.0937500
        k(   25) = (  -0.1250000   0.8750000  -0.1250000), wk =   0.0312500
        k(   26) = (   0.0000000   0.0000000   0.8750000), wk =   0.0234375

     Dense  grid:    28675 G-vectors     FFT dimensions: (  45,  45,  45)

     Estimated max dynamical RAM per process >      28.63 MB

     Initial potential from superposition of free atoms

     starting charge    0.98381, renormalised to    1.00000
     Starting wfcs are   16 randomized atomic wfcs

     total cpu time spent up to now is        0.8 secs

     Self-consistent Calculation

     iteration #  1     ecut=    60.00 Ry     beta= 0.70
     Davidson diagonalization with overlap
     ethr =  1.00E-02,  avg # of iterations =  6.8

     Threshold (ethr) on eigenvalues was too large:
     Diagonalizing with lowered threshold

     Davidson diagonalization with overlap
     ethr =  5.72E-05,  avg # of iterations =  9.5

     total cpu time spent up to now is        3.9 secs

     total energy              =      -1.02861178 Ry
     estimated scf accuracy    <       0.00063339 Ry

     iteration #  2     ecut=    60.00 Ry     beta= 0.70
     Davidson diagonalization with overlap
     ethr =  6.33E-05,  avg # of iterations =  1.0

     total cpu time spent up to now is        4.8 secs

     total energy              =      -1.02863238 Ry
     estimated scf accuracy    <       0.00006106 Ry

     iteration #  3     ecut=    60.00 Ry     beta= 0.70
     Davidson diagonalization with overlap
     ethr =  6.11E-06,  avg # of iterations =  5.0

     total cpu time spent up to now is        6.1 secs

     End of self-consistent calculation

          k = 0.0000 0.0000 0.1250 (  3544 PWs)   bands (ev):

    -2.3602   4.2313   4.2315   4.4036   4.9226

          k = 0.0000-0.1250 0.2500 (  3578 PWs)   bands (ev):

    -1.9904   3.5081   3.8673   4.6394   4.6772

          k = 0.0000-0.2500 0.3750 (  3593 PWs)   bands (ev):

    -1.2718   2.2767   3.4664   4.6845   5.2381

          k = 0.0000-0.3750 0.5000 (  3587 PWs)   bands (ev):

    -0.2546   0.9779   3.2342   4.6370   5.6273

          k =-0.1250 0.1250 0.1250 (  3565 PWs)   bands (ev):

    -2.1744   3.8758   3.8759   4.5598   5.1231

          k =-0.1250-0.1250 0.3750 (  3596 PWs)   bands (ev):

    -1.4487   2.8175   3.3324   4.4911   4.9887

          k =-0.1250-0.2500 0.5000 (  3592 PWs)   bands (ev):

    -0.5855   1.7471   2.8834   4.5374   5.2515

          k =-0.1250 0.6250-0.3750 (  3576 PWs)   bands (ev):

     0.4407   0.6190   2.7355   4.4509   5.5052

          k =-0.2500 0.2500 0.1250 (  3593 PWs)   bands (ev):

    -1.6272   2.8812   3.3836   4.8931   5.1677

          k =-0.2500 0.7500-0.3750 (  3579 PWs)   bands (ev):

     0.3578   1.2939   1.9563   4.9076   4.9509

          k =-0.3750 0.3750 0.1250 (  3578 PWs)   bands (ev):

    -0.7529   1.6462   3.0459   4.9647   5.5084

          k =-0.3750 0.2500 0.2500 (  3579 PWs)   bands (ev):

    -0.9234   2.2368   2.6481   4.7952   5.2683

          k = 0.5000-0.5000 0.1250 (  3584 PWs)   bands (ev):

     0.3193   0.4420   2.9282   4.8144   5.7619

          k = 0.5000-0.6250 0.2500 (  3591 PWs)   bands (ev):

     0.0604   1.2233   2.2892   4.4114   5.4805

          k = 0.3750-0.6250 0.3750 (  3598 PWs)   bands (ev):

     0.9343   0.9344   1.5544   4.1401   5.5964

          k = 0.0000 0.0000 0.3750 (  3580 PWs)   bands (ev):

    -1.6277   3.5110   3.6930   3.6941   4.8402

          k = 0.0000-0.1250 0.5000 (  3571 PWs)   bands (ev):

    -0.9255   2.4319   3.4245   3.7511   5.2881

          k = 0.0000-0.2500 0.6250 (  3585 PWs)   bands (ev):

     0.0571   1.2476   3.2467   3.6446   5.1427

          k =-0.1250-0.1250 0.6250 (  3573 PWs)   bands (ev):

    -0.1021   1.8590   2.7277   3.9628   4.7409

          k =-0.1250 0.7500-0.2500 (  3561 PWs)   bands (ev):

     0.7956   1.0686   2.3735   4.0853   4.7607

          k = 0.6250-0.6250 0.3750 (  3586 PWs)   bands (ev):

    -0.0968   1.8822   1.8824   3.9433   5.7001

          k = 0.5000-0.5000 0.3750 (  3580 PWs)   bands (ev):

     0.8130   1.0370   1.7634   3.5075   5.7513

          k = 0.0000 0.0000 0.6250 (  3552 PWs)   bands (ev):

    -0.2642   2.3297   3.3329   3.3332   4.3457

          k = 0.0000-0.1250 0.7500 (  3569 PWs)   bands (ev):

     0.6247   1.6406   3.0951   3.2545   4.2018

          k =-0.1250 0.8750-0.1250 (  3556 PWs)   bands (ev):

     1.3285   1.3285   2.5583   3.8054   3.8054

          k = 0.0000 0.0000 0.8750 (  3564 PWs)   bands (ev):

     1.2953   1.7078   3.2527   3.2527   3.3655

     the Fermi energy is    -0.2900 ev

!    total energy              =      -1.02863538 Ry
     estimated scf accuracy    <       0.00000002 Ry
     smearing contrib. (-TS)   =      -0.00091057 Ry
     internal energy E=F+TS    =      -1.02772481 Ry

     The total energy is F=E-TS. E is the sum of the following terms:
     one-electron contribution =       0.27716689 Ry
     hartree contribution      =       0.00209129 Ry
     xc contribution           =      -0.93180429 Ry
     ewald contribution        =      -0.37517871 Ry

     convergence has been achieved in   3 iterations

     Writing output data file ./K.save/

     init_run     :      4.60s CPU      0.81s WALL (       1 calls)
     electrons    :     31.11s CPU      5.29s WALL (       1 calls)

     Called by init_run:
     wfcinit      :      4.53s CPU      0.74s WALL (       1 calls)
     potinit      :      0.02s CPU      0.02s WALL (       1 calls)
     hinit0       :      0.02s CPU      0.03s WALL (       1 calls)

     Called by electrons:
     c_bands      :     28.49s CPU      4.65s WALL (       4 calls)
     sum_band     :      2.55s CPU      0.57s WALL (       4 calls)
     v_of_rho     :      0.09s CPU      0.09s WALL (       4 calls)
     mix_rho      :      0.01s CPU      0.01s WALL (       4 calls)

     Called by c_bands:
     init_us_2    :      1.10s CPU      0.18s WALL (     234 calls)
     cegterg      :     26.49s CPU      4.32s WALL (     104 calls)

     Called by *egterg:
     cdiaghg      :      0.15s CPU      0.02s WALL (     658 calls)
     h_psi        :     28.83s CPU      4.74s WALL (     710 calls)
     g_psi        :      0.21s CPU      0.03s WALL (     580 calls)

     Called by h_psi:
     h_psi:calbec :      0.36s CPU      0.06s WALL (     710 calls)
     vloc_psi     :     28.08s CPU      4.61s WALL (     710 calls)
     add_vuspsi   :      0.29s CPU      0.05s WALL (     710 calls)

     General routines
     calbec       :      0.35s CPU      0.06s WALL (     710 calls)
     fft          :      0.03s CPU      0.03s WALL (      41 calls)
     ffts         :      0.00s CPU      0.00s WALL (       4 calls)
     fftw         :     26.70s CPU      4.48s WALL (    5854 calls)

     Parallel routines

     PWSCF        :     35.74s CPU      6.13s WALL


   This run was terminated on:  21:28:55  19Jan2023            

=------------------------------------------------------------------------------=
   JOB DONE.
=------------------------------------------------------------------------------=
