
     Program PWSCF v.6.7MaX starts on 19Jan2023 at 21:29: 5 

     This program is part of the open-source Quantum ESPRESSO suite
     for quantum simulation of materials; please cite
         "P. Giannozzi et al., J. Phys.:Condens. Matter 21 395502 (2009);
         "P. Giannozzi et al., J. Phys.:Condens. Matter 29 465901 (2017);
          URL http://www.quantum-espresso.org", 
     in publications or presentations arising from this work. More details at
     http://www.quantum-espresso.org/quote

     Parallel version (MPI), running on     1 processors

     MPI processes distributed on     1 nodes
     Waiting for input...
     Reading input from standard input
Warning: card SENT FROM MAIL FOR WINDOWS ignored

     Current dimensions of program PWSCF are:
     Max number of different atomic species (ntypx) = 10
     Max number of k-points (npk) =  40000
     Max angular momentum in pseudopotentials (lmaxx) =  3
     file K.pbe-mt_fhi.UPF: wavefunction(s)  4p 3d 4f renormalized

     Subspace diagonalization in iterative solution of the eigenvalue problem:
     a serial algorithm will be used


     G-vector sticks info
     --------------------
     sticks:   dense  smooth     PW     G-vecs:    dense   smooth      PW
     Sum        1335    1335    387                30501    30501    4753



     bravais-lattice index     =            3
     lattice parameter (alat)  =       9.9000  a.u.
     unit-cell volume          =     485.1495 (a.u.)^3
     number of atoms/cell      =            1
     number of atomic types    =            1
     number of electrons       =         1.00
     number of Kohn-Sham states=            5
     kinetic-energy cutoff     =      60.0000  Ry
     charge density cutoff     =     240.0000  Ry
     scf convergence threshold =      1.0E-06
     mixing beta               =       0.7000
     number of iterations used =            8  plain     mixing
     Exchange-correlation= PBE
                           (   1   4   3   4   0   0   0)

     celldm(1)=   9.900000  celldm(2)=   0.000000  celldm(3)=   0.000000
     celldm(4)=   0.000000  celldm(5)=   0.000000  celldm(6)=   0.000000

     crystal axes: (cart. coord. in units of alat)
               a(1) = (   0.500000   0.500000   0.500000 )  
               a(2) = (  -0.500000   0.500000   0.500000 )  
               a(3) = (  -0.500000  -0.500000   0.500000 )  

     reciprocal axes: (cart. coord. in units 2 pi/alat)
               b(1) = (  1.000000  0.000000  1.000000 )  
               b(2) = ( -1.000000  1.000000  0.000000 )  
               b(3) = (  0.000000 -1.000000  1.000000 )  


     PseudoPot. # 1 for K  read from file:
     ./K.pbe-mt_fhi.UPF
     MD5 check sum: be3a3788e029af498c3454134aaf9ef1
     Pseudo is Norm-conserving + core correction, Zval =  1.0
     Generated using FHI98PP, converted with fhi2upf.x v.5.0.2
     Using radial grid of  509 points,  3 beta functions with: 
                l(1) =   1
                l(2) =   2
                l(3) =   3

     atomic species   valence    mass     pseudopotential
        K              1.00    39.09830     K ( 1.00)

     48 Sym. Ops., with inversion, found



   Cartesian axes

     site n.     atom                  positions (alat units)
         1           K   tau(   1) = (   0.0000000   0.0000000   0.0000000  )

     number of k points=    26  Marzari-Vanderbilt smearing, width (Ry)=  0.0400
                       cart. coord. in units 2pi/alat
        k(    1) = (   0.0000000   0.0000000   0.1250000), wk =   0.0234375
        k(    2) = (   0.0000000  -0.1250000   0.2500000), wk =   0.0937500
        k(    3) = (   0.0000000  -0.2500000   0.3750000), wk =   0.0937500
        k(    4) = (   0.0000000  -0.3750000   0.5000000), wk =   0.0937500
        k(    5) = (  -0.1250000   0.1250000   0.1250000), wk =   0.0312500
        k(    6) = (  -0.1250000  -0.1250000   0.3750000), wk =   0.0937500
        k(    7) = (  -0.1250000  -0.2500000   0.5000000), wk =   0.1875000
        k(    8) = (  -0.1250000   0.6250000  -0.3750000), wk =   0.0937500
        k(    9) = (  -0.2500000   0.2500000   0.1250000), wk =   0.0937500
        k(   10) = (  -0.2500000   0.7500000  -0.3750000), wk =   0.0937500
        k(   11) = (  -0.3750000   0.3750000   0.1250000), wk =   0.0937500
        k(   12) = (  -0.3750000   0.2500000   0.2500000), wk =   0.0937500
        k(   13) = (   0.5000000  -0.5000000   0.1250000), wk =   0.0468750
        k(   14) = (   0.5000000  -0.6250000   0.2500000), wk =   0.1875000
        k(   15) = (   0.3750000  -0.6250000   0.3750000), wk =   0.0312500
        k(   16) = (   0.0000000   0.0000000   0.3750000), wk =   0.0234375
        k(   17) = (   0.0000000  -0.1250000   0.5000000), wk =   0.0937500
        k(   18) = (   0.0000000  -0.2500000   0.6250000), wk =   0.0937500
        k(   19) = (  -0.1250000  -0.1250000   0.6250000), wk =   0.0937500
        k(   20) = (  -0.1250000   0.7500000  -0.2500000), wk =   0.0937500
        k(   21) = (   0.6250000  -0.6250000   0.3750000), wk =   0.0312500
        k(   22) = (   0.5000000  -0.5000000   0.3750000), wk =   0.0468750
        k(   23) = (   0.0000000   0.0000000   0.6250000), wk =   0.0234375
        k(   24) = (   0.0000000  -0.1250000   0.7500000), wk =   0.0937500
        k(   25) = (  -0.1250000   0.8750000  -0.1250000), wk =   0.0312500
        k(   26) = (   0.0000000   0.0000000   0.8750000), wk =   0.0234375

     Dense  grid:    30501 G-vectors     FFT dimensions: (  45,  45,  45)

     Estimated max dynamical RAM per process >      30.02 MB

     Initial potential from superposition of free atoms

     starting charge    0.98381, renormalised to    1.00000
     Starting wfcs are   16 randomized atomic wfcs

     total cpu time spent up to now is        0.8 secs

     Self-consistent Calculation

     iteration #  1     ecut=    60.00 Ry     beta= 0.70
     Davidson diagonalization with overlap
     ethr =  1.00E-02,  avg # of iterations =  7.0

     Threshold (ethr) on eigenvalues was too large:
     Diagonalizing with lowered threshold

     Davidson diagonalization with overlap
     ethr =  5.50E-05,  avg # of iterations = 10.3

     total cpu time spent up to now is        5.3 secs

     total energy              =      -1.02829750 Ry
     estimated scf accuracy    <       0.00061915 Ry

     iteration #  2     ecut=    60.00 Ry     beta= 0.70
     Davidson diagonalization with overlap
     ethr =  6.19E-05,  avg # of iterations =  1.0

     total cpu time spent up to now is        6.1 secs

     total energy              =      -1.02832132 Ry
     estimated scf accuracy    <       0.00006082 Ry

     iteration #  3     ecut=    60.00 Ry     beta= 0.70
     Davidson diagonalization with overlap
     ethr =  6.08E-06,  avg # of iterations =  4.3

     total cpu time spent up to now is        7.3 secs

     End of self-consistent calculation

          k = 0.0000 0.0000 0.1250 (  3841 PWs)   bands (ev):

    -2.3987   4.0443   4.0444   4.2143   4.7082

          k = 0.0000-0.1250 0.2500 (  3829 PWs)   bands (ev):

    -2.0441   3.3272   3.6890   4.4334   4.4669

          k = 0.0000-0.2500 0.3750 (  3814 PWs)   bands (ev):

    -1.3534   2.1107   3.3010   4.4601   4.9816

          k = 0.0000-0.3750 0.5000 (  3808 PWs)   bands (ev):

    -0.3708   0.8313   3.0764   4.3910   5.3852

          k =-0.1250 0.1250 0.1250 (  3787 PWs)   bands (ev):

    -2.2207   3.6963   3.6966   4.3499   4.9050

          k =-0.1250-0.1250 0.3750 (  3809 PWs)   bands (ev):

    -1.5237   2.6530   3.1467   4.2877   4.7464

          k =-0.1250-0.2500 0.5000 (  3808 PWs)   bands (ev):

    -0.6910   1.5922   2.7019   4.3129   4.9725

          k =-0.1250 0.6250-0.3750 (  3780 PWs)   bands (ev):

     0.3059   0.4811   2.5579   4.2166   5.2649

          k =-0.2500 0.2500 0.1250 (  3811 PWs)   bands (ev):

    -1.6954   2.7117   3.2168   4.6300   4.9402

          k =-0.2500 0.7500-0.3750 (  3806 PWs)   bands (ev):

     0.2265   1.1522   1.7663   4.6634   4.6823

          k =-0.3750 0.3750 0.1250 (  3816 PWs)   bands (ev):

    -0.8531   1.4892   2.8881   4.6633   5.2697

          k =-0.3750 0.2500 0.2500 (  3808 PWs)   bands (ev):

    -1.0178   2.0817   2.4818   4.4500   5.0439

          k = 0.5000-0.5000 0.1250 (  3810 PWs)   bands (ev):

     0.1846   0.3099   2.7736   4.5143   5.5240

          k = 0.5000-0.6250 0.2500 (  3814 PWs)   bands (ev):

    -0.0648   1.0752   2.1261   4.0702   5.2428

          k = 0.3750-0.6250 0.3750 (  3808 PWs)   bands (ev):

     0.7944   0.7946   1.3822   3.8101   5.3616

          k = 0.0000 0.0000 0.3750 (  3816 PWs)   bands (ev):

    -1.6957   3.3428   3.4977   3.4979   4.6356

          k = 0.0000-0.1250 0.5000 (  3808 PWs)   bands (ev):

    -1.0192   2.2738   3.2275   3.5454   5.0459

          k = 0.0000-0.2500 0.6250 (  3803 PWs)   bands (ev):

    -0.0667   1.0995   3.0539   3.4294   4.8953

          k =-0.1250-0.1250 0.6250 (  3821 PWs)   bands (ev):

    -0.2210   1.7174   2.5136   3.7465   4.4916

          k =-0.1250 0.7500-0.2500 (  3802 PWs)   bands (ev):

     0.6616   0.9247   2.1693   3.8609   4.5149

          k = 0.6250-0.6250 0.3750 (  3835 PWs)   bands (ev):

    -0.2177   1.7322   1.7323   3.5778   5.4652

          k = 0.5000-0.5000 0.3750 (  3808 PWs)   bands (ev):

     0.6739   0.8916   1.6146   3.1620   5.5150

          k = 0.0000 0.0000 0.6250 (  3812 PWs)   bands (ev):

    -0.3779   2.2028   3.1056   3.1058   4.0840

          k = 0.0000-0.1250 0.7500 (  3795 PWs)   bands (ev):

     0.4936   1.5070   2.8718   3.0139   3.9499

          k =-0.1250 0.8750-0.1250 (  3790 PWs)   bands (ev):

     1.2024   1.2024   2.3117   3.5531   3.5533

          k = 0.0000 0.0000 0.8750 (  3788 PWs)   bands (ev):

     1.1730   1.6033   2.9808   2.9808   3.1070

     the Fermi energy is    -0.4042 ev

!    total energy              =      -1.02832395 Ry
     estimated scf accuracy    <       0.00000002 Ry
     smearing contrib. (-TS)   =      -0.00099168 Ry
     internal energy E=F+TS    =      -1.02733227 Ry

     The total energy is F=E-TS. E is the sum of the following terms:
     one-electron contribution =       0.26329720 Ry
     hartree contribution      =       0.00187056 Ry
     xc contribution           =      -0.92490069 Ry
     ewald contribution        =      -0.36759934 Ry

     convergence has been achieved in   3 iterations

     Writing output data file ./K.save/

     init_run     :      4.43s CPU      0.82s WALL (       1 calls)
     electrons    :     38.18s CPU      6.41s WALL (       1 calls)

     Called by init_run:
     wfcinit      :      4.38s CPU      0.76s WALL (       1 calls)
     potinit      :      0.02s CPU      0.03s WALL (       1 calls)
     hinit0       :      0.02s CPU      0.03s WALL (       1 calls)

     Called by electrons:
     c_bands      :     35.60s CPU      5.75s WALL (       4 calls)
     sum_band     :      2.50s CPU      0.58s WALL (       4 calls)
     v_of_rho     :      0.07s CPU      0.08s WALL (       4 calls)
     mix_rho      :      0.01s CPU      0.01s WALL (       4 calls)

     Called by c_bands:
     init_us_2    :      1.16s CPU      0.21s WALL (     234 calls)
     cegterg      :     33.09s CPU      5.35s WALL (     104 calls)

     Called by *egterg:
     cdiaghg      :      0.18s CPU      0.03s WALL (     666 calls)
     h_psi        :     34.93s CPU      5.72s WALL (     718 calls)
     g_psi        :      0.30s CPU      0.04s WALL (     588 calls)

     Called by h_psi:
     h_psi:calbec :      0.50s CPU      0.08s WALL (     718 calls)
     vloc_psi     :     34.03s CPU      5.58s WALL (     718 calls)
     add_vuspsi   :      0.26s CPU      0.04s WALL (     718 calls)

     General routines
     calbec       :      0.49s CPU      0.08s WALL (     718 calls)
     fft          :      0.03s CPU      0.03s WALL (      41 calls)
     ffts         :      0.00s CPU      0.00s WALL (       4 calls)
     fftw         :     31.81s CPU      5.32s WALL (    5916 calls)

     Parallel routines

     PWSCF        :     42.63s CPU      7.27s WALL


   This run was terminated on:  21:29:13  19Jan2023            

=------------------------------------------------------------------------------=
   JOB DONE.
=------------------------------------------------------------------------------=
