
     Program PWSCF v.6.7MaX starts on 19Mar2023 at 21:26:10 

     This program is part of the open-source Quantum ESPRESSO suite
     for quantum simulation of materials; please cite
         "P. Giannozzi et al., J. Phys.:Condens. Matter 21 395502 (2009);
         "P. Giannozzi et al., J. Phys.:Condens. Matter 29 465901 (2017);
          URL http://www.quantum-espresso.org", 
     in publications or presentations arising from this work. More details at
     http://www.quantum-espresso.org/quote

     Parallel version (MPI), running on     1 processors

     MPI processes distributed on     1 nodes
     Waiting for input...
     Reading input from standard input
Warning: card SENT FROM MAIL FOR WINDOWS ignored

     Current dimensions of program PWSCF are:
     Max number of different atomic species (ntypx) = 10
     Max number of k-points (npk) =  40000
     Max angular momentum in pseudopotentials (lmaxx) =  3
     file K.pbe-mt_fhi.UPF: wavefunction(s)  4p 3d 4f renormalized

     Subspace diagonalization in iterative solution of the eigenvalue problem:
     a serial algorithm will be used


     G-vector sticks info
     --------------------
     sticks:   dense  smooth     PW     G-vecs:    dense   smooth      PW
     Sum        1051    1051    315                21913    21913    3559



     bravais-lattice index     =            3
     lattice parameter (alat)  =       8.9000  a.u.
     unit-cell volume          =     352.4845 (a.u.)^3
     number of atoms/cell      =            1
     number of atomic types    =            1
     number of electrons       =         1.00
     number of Kohn-Sham states=            5
     kinetic-energy cutoff     =      60.0000  Ry
     charge density cutoff     =     240.0000  Ry
     scf convergence threshold =      1.0E-06
     mixing beta               =       0.7000
     number of iterations used =            8  plain     mixing
     Exchange-correlation= PBE
                           (   1   4   3   4   0   0   0)

     celldm(1)=   8.900000  celldm(2)=   0.000000  celldm(3)=   0.000000
     celldm(4)=   0.000000  celldm(5)=   0.000000  celldm(6)=   0.000000

     crystal axes: (cart. coord. in units of alat)
               a(1) = (   0.500000   0.500000   0.500000 )  
               a(2) = (  -0.500000   0.500000   0.500000 )  
               a(3) = (  -0.500000  -0.500000   0.500000 )  

     reciprocal axes: (cart. coord. in units 2 pi/alat)
               b(1) = (  1.000000  0.000000  1.000000 )  
               b(2) = ( -1.000000  1.000000  0.000000 )  
               b(3) = (  0.000000 -1.000000  1.000000 )  


     PseudoPot. # 1 for K  read from file:
     ./K.pbe-mt_fhi.UPF
     MD5 check sum: be3a3788e029af498c3454134aaf9ef1
     Pseudo is Norm-conserving + core correction, Zval =  1.0
     Generated using FHI98PP, converted with fhi2upf.x v.5.0.2
     Using radial grid of  509 points,  3 beta functions with: 
                l(1) =   1
                l(2) =   2
                l(3) =   3

     atomic species   valence    mass     pseudopotential
        K              1.00    39.09830     K ( 1.00)

     48 Sym. Ops., with inversion, found



   Cartesian axes

     site n.     atom                  positions (alat units)
         1           K   tau(   1) = (   0.0000000   0.0000000   0.0000000  )

     number of k points=    26  Marzari-Vanderbilt smearing, width (Ry)=  0.0400
                       cart. coord. in units 2pi/alat
        k(    1) = (   0.0000000   0.0000000   0.1250000), wk =   0.0234375
        k(    2) = (   0.0000000  -0.1250000   0.2500000), wk =   0.0937500
        k(    3) = (   0.0000000  -0.2500000   0.3750000), wk =   0.0937500
        k(    4) = (   0.0000000  -0.3750000   0.5000000), wk =   0.0937500
        k(    5) = (  -0.1250000   0.1250000   0.1250000), wk =   0.0312500
        k(    6) = (  -0.1250000  -0.1250000   0.3750000), wk =   0.0937500
        k(    7) = (  -0.1250000  -0.2500000   0.5000000), wk =   0.1875000
        k(    8) = (  -0.1250000   0.6250000  -0.3750000), wk =   0.0937500
        k(    9) = (  -0.2500000   0.2500000   0.1250000), wk =   0.0937500
        k(   10) = (  -0.2500000   0.7500000  -0.3750000), wk =   0.0937500
        k(   11) = (  -0.3750000   0.3750000   0.1250000), wk =   0.0937500
        k(   12) = (  -0.3750000   0.2500000   0.2500000), wk =   0.0937500
        k(   13) = (   0.5000000  -0.5000000   0.1250000), wk =   0.0468750
        k(   14) = (   0.5000000  -0.6250000   0.2500000), wk =   0.1875000
        k(   15) = (   0.3750000  -0.6250000   0.3750000), wk =   0.0312500
        k(   16) = (   0.0000000   0.0000000   0.3750000), wk =   0.0234375
        k(   17) = (   0.0000000  -0.1250000   0.5000000), wk =   0.0937500
        k(   18) = (   0.0000000  -0.2500000   0.6250000), wk =   0.0937500
        k(   19) = (  -0.1250000  -0.1250000   0.6250000), wk =   0.0937500
        k(   20) = (  -0.1250000   0.7500000  -0.2500000), wk =   0.0937500
        k(   21) = (   0.6250000  -0.6250000   0.3750000), wk =   0.0312500
        k(   22) = (   0.5000000  -0.5000000   0.3750000), wk =   0.0468750
        k(   23) = (   0.0000000   0.0000000   0.6250000), wk =   0.0234375
        k(   24) = (   0.0000000  -0.1250000   0.7500000), wk =   0.0937500
        k(   25) = (  -0.1250000   0.8750000  -0.1250000), wk =   0.0312500
        k(   26) = (   0.0000000   0.0000000   0.8750000), wk =   0.0234375

     Dense  grid:    21913 G-vectors     FFT dimensions: (  40,  40,  40)

     Estimated max dynamical RAM per process >      21.69 MB

     Initial potential from superposition of free atoms

     starting charge    0.98381, renormalised to    1.00000
     Starting wfcs are   16 randomized atomic wfcs

     total cpu time spent up to now is        0.7 secs

     Self-consistent Calculation

     iteration #  1     ecut=    60.00 Ry     beta= 0.70
     Davidson diagonalization with overlap
     ethr =  1.00E-02,  avg # of iterations =  6.3

     Threshold (ethr) on eigenvalues was too large:
     Diagonalizing with lowered threshold

     Davidson diagonalization with overlap
     ethr =  7.54E-05,  avg # of iterations =  7.7

     total cpu time spent up to now is        3.9 secs

     total energy              =      -1.02443474 Ry
     estimated scf accuracy    <       0.00080272 Ry

     iteration #  2     ecut=    60.00 Ry     beta= 0.70
     Davidson diagonalization with overlap
     ethr =  8.03E-05,  avg # of iterations =  1.0

     total cpu time spent up to now is        4.7 secs

     total energy              =      -1.02445309 Ry
     estimated scf accuracy    <       0.00007526 Ry

     iteration #  3     ecut=    60.00 Ry     beta= 0.70
     Davidson diagonalization with overlap
     c_bands:  2 eigenvalues not converged
     ethr =  7.53E-06,  avg # of iterations =  5.5

     total cpu time spent up to now is        6.1 secs

     End of self-consistent calculation

          k = 0.0000 0.0000 0.1250 (  2779 PWs)   bands (ev):

    -2.1181   5.0790   5.0790   5.2601   5.8957

          k = 0.0000-0.1250 0.2500 (  2775 PWs)   bands (ev):

    -1.6753   4.3274   4.6729   5.5789   5.6324

          k = 0.0000-0.2500 0.3750 (  2760 PWs)   bands (ev):

    -0.8268   3.0395   4.2120   5.7007   6.4077

          k = 0.0000-0.3750 0.5000 (  2757 PWs)   bands (ev):

     0.3413   1.6831   3.9446   5.7500   6.7392

          k =-0.1250 0.1250 0.1250 (  2770 PWs)   bands (ev):

    -1.8951   4.6874   4.6897   5.5096   6.1235

          k =-0.1250-0.1250 0.3750 (  2789 PWs)   bands (ev):

    -1.0341   3.5678   4.1622   5.4192   6.0866

          k =-0.1250-0.2500 0.5000 (  2770 PWs)   bands (ev):

    -0.0342   2.4674   3.6969   5.5517   6.5081

          k =-0.1250 0.6250-0.3750 (  2761 PWs)   bands (ev):

     1.1346   1.2672   3.5317   5.5138   6.6228

          k =-0.2500 0.2500 0.1250 (  2767 PWs)   bands (ev):

    -1.2439   3.6516   4.1374   6.0681   6.1728

          k =-0.2500 0.7500-0.3750 (  2769 PWs)   bands (ev):

     1.0163   1.9737   2.8143   5.9447   6.2167

          k =-0.3750 0.3750 0.1250 (  2771 PWs)   bands (ev):

    -0.2243   2.3820   3.7589   6.2172   6.5995

          k =-0.3750 0.2500 0.2500 (  2770 PWs)   bands (ev):

    -0.4197   2.9541   3.3995   6.2881   6.3746

          k = 0.5000-0.5000 0.1250 (  2766 PWs)   bands (ev):

     1.0237   1.0638   3.6268   6.1068   6.8542

          k = 0.5000-0.6250 0.2500 (  2773 PWs)   bands (ev):

     0.6974   1.9288   3.0289   6.0188   6.6334

          k = 0.3750-0.6250 0.3750 (  2796 PWs)   bands (ev):

     1.6273   1.6274   2.3286   5.7868   6.6812

          k = 0.0000 0.0000 0.3750 (  2783 PWs)   bands (ev):

    -1.2454   4.2753   4.5790   4.5790   5.7700

          k = 0.0000-0.1250 0.5000 (  2757 PWs)   bands (ev):

    -0.4269   3.1461   4.3156   4.6962   6.3861

          k = 0.0000-0.2500 0.6250 (  2751 PWs)   bands (ev):

     0.6818   1.9417   4.1201   4.6359   6.3063

          k =-0.1250-0.1250 0.6250 (  2748 PWs)   bands (ev):

     0.5009   2.5082   3.7072   4.9691   5.8939

          k =-0.1250 0.7500-0.2500 (  2752 PWs)   bands (ev):

     1.4542   1.7364   3.3211   5.1317   5.9286

          k = 0.6250-0.6250 0.3750 (  2763 PWs)   bands (ev):

     0.5231   2.5865   2.5865   5.7471   6.7836

          k = 0.5000-0.5000 0.3750 (  2770 PWs)   bands (ev):

     1.5103   1.7316   2.4655   5.2186   6.8500

          k = 0.0000 0.0000 0.6250 (  2747 PWs)   bands (ev):

     0.3159   2.9033   4.3897   4.3897   5.5412

          k = 0.0000-0.1250 0.7500 (  2758 PWs)   bands (ev):

     1.2559   2.2348   4.1678   4.3864   5.4199

          k =-0.1250 0.8750-0.1250 (  2751 PWs)   bands (ev):

     1.9056   1.9056   3.7322   5.0455   5.0457

          k = 0.0000 0.0000 0.8750 (  2751 PWs)   bands (ev):

     1.8448   2.1796   4.5884   4.5894   4.6561

     the Fermi energy is     0.2975 ev

!    total energy              =      -1.02445713 Ry
     estimated scf accuracy    <       0.00000002 Ry
     smearing contrib. (-TS)   =      -0.00059610 Ry
     internal energy E=F+TS    =      -1.02386103 Ry

     The total energy is F=E-TS. E is the sum of the following terms:
     one-electron contribution =       0.34651379 Ry
     hartree contribution      =       0.00309742 Ry
     xc contribution           =      -0.96456961 Ry
     ewald contribution        =      -0.40890263 Ry

     convergence has been achieved in   3 iterations

     Writing output data file ./K.save/

     init_run     :      3.42s CPU      0.65s WALL (       1 calls)
     electrons    :     28.16s CPU      5.40s WALL (       1 calls)

     Called by init_run:
     wfcinit      :      3.36s CPU      0.59s WALL (       1 calls)
     potinit      :      0.02s CPU      0.02s WALL (       1 calls)
     hinit0       :      0.02s CPU      0.02s WALL (       1 calls)

     Called by electrons:
     c_bands      :     25.70s CPU      4.81s WALL (       4 calls)
     sum_band     :      2.39s CPU      0.52s WALL (       4 calls)
     v_of_rho     :      0.07s CPU      0.07s WALL (       4 calls)
     mix_rho      :      0.00s CPU      0.01s WALL (       4 calls)

     Called by c_bands:
     init_us_2    :      0.93s CPU      0.16s WALL (     234 calls)
     cegterg      :     23.98s CPU      4.52s WALL (     104 calls)

     Called by *egterg:
     cdiaghg      :      0.19s CPU      0.03s WALL (     610 calls)
     h_psi        :     23.96s CPU      4.48s WALL (     662 calls)
     g_psi        :      0.17s CPU      0.03s WALL (     532 calls)

     Called by h_psi:
     h_psi:calbec :      1.70s CPU      0.37s WALL (     662 calls)
     vloc_psi     :     19.28s CPU      3.47s WALL (     662 calls)
     add_vuspsi   :      2.89s CPU      0.62s WALL (     662 calls)

     General routines
     calbec       :      1.69s CPU      0.37s WALL (     662 calls)
     fft          :      0.03s CPU      0.03s WALL (      41 calls)
     ffts         :      0.00s CPU      0.00s WALL (       4 calls)
     fftw         :     18.74s CPU      3.42s WALL (    5518 calls)

     Parallel routines

     PWSCF        :     31.61s CPU      6.08s WALL


   This run was terminated on:  21:26:16  19Mar2023            

=------------------------------------------------------------------------------=
   JOB DONE.
=------------------------------------------------------------------------------=
