
     Program PWSCF v.6.7MaX starts on 19Jan2023 at 21:29:23 

     This program is part of the open-source Quantum ESPRESSO suite
     for quantum simulation of materials; please cite
         "P. Giannozzi et al., J. Phys.:Condens. Matter 21 395502 (2009);
         "P. Giannozzi et al., J. Phys.:Condens. Matter 29 465901 (2017);
          URL http://www.quantum-espresso.org", 
     in publications or presentations arising from this work. More details at
     http://www.quantum-espresso.org/quote

     Parallel version (MPI), running on     1 processors

     MPI processes distributed on     1 nodes
     Waiting for input...
     Reading input from standard input
Warning: card SENT FROM MAIL FOR WINDOWS ignored

     Current dimensions of program PWSCF are:
     Max number of different atomic species (ntypx) = 10
     Max number of k-points (npk) =  40000
     Max angular momentum in pseudopotentials (lmaxx) =  3
     file K.pbe-mt_fhi.UPF: wavefunction(s)  4p 3d 4f renormalized

     Subspace diagonalization in iterative solution of the eigenvalue problem:
     a serial algorithm will be used


     G-vector sticks info
     --------------------
     sticks:   dense  smooth     PW     G-vecs:    dense   smooth      PW
     Sum        1375    1375    399                32421    32421    5017



     bravais-lattice index     =            3
     lattice parameter (alat)  =      10.1000  a.u.
     unit-cell volume          =     515.1505 (a.u.)^3
     number of atoms/cell      =            1
     number of atomic types    =            1
     number of electrons       =         1.00
     number of Kohn-Sham states=            5
     kinetic-energy cutoff     =      60.0000  Ry
     charge density cutoff     =     240.0000  Ry
     scf convergence threshold =      1.0E-06
     mixing beta               =       0.7000
     number of iterations used =            8  plain     mixing
     Exchange-correlation= PBE
                           (   1   4   3   4   0   0   0)

     celldm(1)=  10.100000  celldm(2)=   0.000000  celldm(3)=   0.000000
     celldm(4)=   0.000000  celldm(5)=   0.000000  celldm(6)=   0.000000

     crystal axes: (cart. coord. in units of alat)
               a(1) = (   0.500000   0.500000   0.500000 )  
               a(2) = (  -0.500000   0.500000   0.500000 )  
               a(3) = (  -0.500000  -0.500000   0.500000 )  

     reciprocal axes: (cart. coord. in units 2 pi/alat)
               b(1) = (  1.000000  0.000000  1.000000 )  
               b(2) = ( -1.000000  1.000000  0.000000 )  
               b(3) = (  0.000000 -1.000000  1.000000 )  


     PseudoPot. # 1 for K  read from file:
     ./K.pbe-mt_fhi.UPF
     MD5 check sum: be3a3788e029af498c3454134aaf9ef1
     Pseudo is Norm-conserving + core correction, Zval =  1.0
     Generated using FHI98PP, converted with fhi2upf.x v.5.0.2
     Using radial grid of  509 points,  3 beta functions with: 
                l(1) =   1
                l(2) =   2
                l(3) =   3

     atomic species   valence    mass     pseudopotential
        K              1.00    39.09830     K ( 1.00)

     48 Sym. Ops., with inversion, found



   Cartesian axes

     site n.     atom                  positions (alat units)
         1           K   tau(   1) = (   0.0000000   0.0000000   0.0000000  )

     number of k points=    26  Marzari-Vanderbilt smearing, width (Ry)=  0.0400
                       cart. coord. in units 2pi/alat
        k(    1) = (   0.0000000   0.0000000   0.1250000), wk =   0.0234375
        k(    2) = (   0.0000000  -0.1250000   0.2500000), wk =   0.0937500
        k(    3) = (   0.0000000  -0.2500000   0.3750000), wk =   0.0937500
        k(    4) = (   0.0000000  -0.3750000   0.5000000), wk =   0.0937500
        k(    5) = (  -0.1250000   0.1250000   0.1250000), wk =   0.0312500
        k(    6) = (  -0.1250000  -0.1250000   0.3750000), wk =   0.0937500
        k(    7) = (  -0.1250000  -0.2500000   0.5000000), wk =   0.1875000
        k(    8) = (  -0.1250000   0.6250000  -0.3750000), wk =   0.0937500
        k(    9) = (  -0.2500000   0.2500000   0.1250000), wk =   0.0937500
        k(   10) = (  -0.2500000   0.7500000  -0.3750000), wk =   0.0937500
        k(   11) = (  -0.3750000   0.3750000   0.1250000), wk =   0.0937500
        k(   12) = (  -0.3750000   0.2500000   0.2500000), wk =   0.0937500
        k(   13) = (   0.5000000  -0.5000000   0.1250000), wk =   0.0468750
        k(   14) = (   0.5000000  -0.6250000   0.2500000), wk =   0.1875000
        k(   15) = (   0.3750000  -0.6250000   0.3750000), wk =   0.0312500
        k(   16) = (   0.0000000   0.0000000   0.3750000), wk =   0.0234375
        k(   17) = (   0.0000000  -0.1250000   0.5000000), wk =   0.0937500
        k(   18) = (   0.0000000  -0.2500000   0.6250000), wk =   0.0937500
        k(   19) = (  -0.1250000  -0.1250000   0.6250000), wk =   0.0937500
        k(   20) = (  -0.1250000   0.7500000  -0.2500000), wk =   0.0937500
        k(   21) = (   0.6250000  -0.6250000   0.3750000), wk =   0.0312500
        k(   22) = (   0.5000000  -0.5000000   0.3750000), wk =   0.0468750
        k(   23) = (   0.0000000   0.0000000   0.6250000), wk =   0.0234375
        k(   24) = (   0.0000000  -0.1250000   0.7500000), wk =   0.0937500
        k(   25) = (  -0.1250000   0.8750000  -0.1250000), wk =   0.0312500
        k(   26) = (   0.0000000   0.0000000   0.8750000), wk =   0.0234375

     Dense  grid:    32421 G-vectors     FFT dimensions: (  45,  45,  45)

     Estimated max dynamical RAM per process >      31.47 MB

     Initial potential from superposition of free atoms

     starting charge    0.98381, renormalised to    1.00000
     Starting wfcs are   16 randomized atomic wfcs

     total cpu time spent up to now is        0.9 secs

     Self-consistent Calculation

     iteration #  1     ecut=    60.00 Ry     beta= 0.70
     Davidson diagonalization with overlap
     ethr =  1.00E-02,  avg # of iterations =  7.0

     Threshold (ethr) on eigenvalues was too large:
     Diagonalizing with lowered threshold

     Davidson diagonalization with overlap
     ethr =  5.43E-05,  avg # of iterations = 10.6

     total cpu time spent up to now is        5.4 secs

     total energy              =      -1.02760063 Ry
     estimated scf accuracy    <       0.00061804 Ry

     iteration #  2     ecut=    60.00 Ry     beta= 0.70
     Davidson diagonalization with overlap
     ethr =  6.18E-05,  avg # of iterations =  1.0

     total cpu time spent up to now is        6.3 secs

     total energy              =      -1.02762869 Ry
     estimated scf accuracy    <       0.00006110 Ry

     iteration #  3     ecut=    60.00 Ry     beta= 0.70
     Davidson diagonalization with overlap
     c_bands:  1 eigenvalues not converged
     ethr =  6.11E-06,  avg # of iterations =  4.6

     total cpu time spent up to now is        7.5 secs

     End of self-consistent calculation

          k = 0.0000 0.0000 0.1250 (  4069 PWs)   bands (ev):

    -2.4310   3.8659   3.8661   4.0344   4.5036

          k = 0.0000-0.1250 0.2500 (  4044 PWs)   bands (ev):

    -2.0907   3.1549   3.5189   4.2373   4.2672

          k = 0.0000-0.2500 0.3750 (  4048 PWs)   bands (ev):

    -1.4262   1.9532   3.1427   4.2459   4.7391

          k = 0.0000-0.3750 0.5000 (  4033 PWs)   bands (ev):

    -0.4766   0.6946   2.9255   4.1571   5.1557

          k =-0.1250 0.1250 0.1250 (  4051 PWs)   bands (ev):

    -2.2602   3.5252   3.5255   4.1497   4.6982

          k =-0.1250-0.1250 0.3750 (  4033 PWs)   bands (ev):

    -1.5902   2.4966   2.9690   4.0941   4.5149

          k =-0.1250-0.2500 0.5000 (  4039 PWs)   bands (ev):

    -0.7866   1.4457   2.5279   4.0991   4.7055

          k =-0.1250 0.6250-0.3750 (  4034 PWs)   bands (ev):

     0.1831   0.3513   2.3880   3.9950   5.0380

          k =-0.2500 0.2500 0.1250 (  4036 PWs)   bands (ev):

    -1.7555   2.5504   3.0576   4.3820   4.7373

          k =-0.2500 0.7500-0.3750 (  4056 PWs)   bands (ev):

     0.1055   1.0200   1.5863   4.3906   4.4686

          k =-0.3750 0.3750 0.1250 (  4038 PWs)   bands (ev):

    -0.9435   1.3414   2.7373   4.3688   5.0424

          k =-0.3750 0.2500 0.2500 (  4038 PWs)   bands (ev):

    -1.1027   1.9353   2.3227   4.1244   4.8328

          k = 0.5000-0.5000 0.1250 (  4040 PWs)   bands (ev):

     0.0625   0.1853   2.6260   4.2226   5.2987

          k = 0.5000-0.6250 0.2500 (  4038 PWs)   bands (ev):

    -0.1793   0.9367   1.9708   3.7523   5.0141

          k = 0.3750-0.6250 0.3750 (  4033 PWs)   bands (ev):

     0.6652   0.6654   1.2175   3.5065   5.1387

          k = 0.0000 0.0000 0.3750 (  4037 PWs)   bands (ev):

    -1.7557   3.1834   3.3118   3.3119   4.4398

          k = 0.0000-0.1250 0.5000 (  4046 PWs)   bands (ev):

    -1.1036   2.1229   3.0399   3.3500   4.8178

          k = 0.0000-0.2500 0.6250 (  4053 PWs)   bands (ev):

    -0.1802   0.9599   2.8696   3.2253   4.6620

          k =-0.1250-0.1250 0.6250 (  4056 PWs)   bands (ev):

    -0.3299   1.5831   2.3100   3.5422   4.2547

          k =-0.1250 0.7500-0.2500 (  4048 PWs)   bands (ev):

     0.5377   0.7886   1.9766   3.6490   4.2846

          k = 0.6250-0.6250 0.3750 (  4036 PWs)   bands (ev):

    -0.3280   1.5907   1.5911   3.2405   5.2425

          k = 0.5000-0.5000 0.3750 (  4032 PWs)   bands (ev):

     0.5456   0.7555   1.4749   2.8434   5.3179

          k = 0.0000 0.0000 0.6250 (  4028 PWs)   bands (ev):

    -0.4819   2.0821   2.8909   2.8910   3.8326

          k = 0.0000-0.1250 0.7500 (  4050 PWs)   bands (ev):

     0.3715   1.3790   2.6639   2.7876   3.7136

          k =-0.1250 0.8750-0.1250 (  4052 PWs)   bands (ev):

     1.0829   1.0829   2.0811   3.3194   3.3194

          k = 0.0000 0.0000 0.8750 (  4068 PWs)   bands (ev):

     1.0562   1.5035   2.7291   2.7291   2.8683

     the Fermi energy is    -0.5082 ev

!    total energy              =      -1.02763309 Ry
     estimated scf accuracy    <       0.00000003 Ry
     smearing contrib. (-TS)   =      -0.00107336 Ry
     internal energy E=F+TS    =      -1.02655973 Ry

     The total energy is F=E-TS. E is the sum of the following terms:
     one-electron contribution =       0.25051699 Ry
     hartree contribution      =       0.00166229 Ry
     xc contribution           =      -0.91841887 Ry
     ewald contribution        =      -0.36032014 Ry

     convergence has been achieved in   3 iterations

     Writing output data file ./K.save/

     init_run     :      4.67s CPU      0.85s WALL (       1 calls)
     electrons    :     38.70s CPU      6.62s WALL (       1 calls)

     Called by init_run:
     wfcinit      :      4.60s CPU      0.78s WALL (       1 calls)
     potinit      :      0.02s CPU      0.03s WALL (       1 calls)
     hinit0       :      0.02s CPU      0.03s WALL (       1 calls)

     Called by electrons:
     c_bands      :     36.07s CPU      5.96s WALL (       4 calls)
     sum_band     :      2.55s CPU      0.59s WALL (       4 calls)
     v_of_rho     :      0.08s CPU      0.08s WALL (       4 calls)
     mix_rho      :      0.00s CPU      0.01s WALL (       4 calls)

     Called by c_bands:
     init_us_2    :      1.27s CPU      0.22s WALL (     234 calls)
     cegterg      :     33.68s CPU      5.54s WALL (     104 calls)

     Called by *egterg:
     cdiaghg      :      0.20s CPU      0.03s WALL (     681 calls)
     h_psi        :     35.38s CPU      5.90s WALL (     733 calls)
     g_psi        :      0.33s CPU      0.05s WALL (     603 calls)

     Called by h_psi:
     h_psi:calbec :      0.47s CPU      0.08s WALL (     733 calls)
     vloc_psi     :     34.51s CPU      5.75s WALL (     733 calls)
     add_vuspsi   :      0.26s CPU      0.05s WALL (     733 calls)

     General routines
     calbec       :      0.46s CPU      0.08s WALL (     733 calls)
     fft          :      0.03s CPU      0.03s WALL (      41 calls)
     ffts         :      0.00s CPU      0.00s WALL (       4 calls)
     fftw         :     32.29s CPU      5.48s WALL (    5954 calls)

     Parallel routines

     PWSCF        :     43.39s CPU      7.50s WALL


   This run was terminated on:  21:29:30  19Jan2023            

=------------------------------------------------------------------------------=
   JOB DONE.
=------------------------------------------------------------------------------=
