
     Program PWSCF v.6.7MaX starts on 19Mar2023 at 21:25:42 

     This program is part of the open-source Quantum ESPRESSO suite
     for quantum simulation of materials; please cite
         "P. Giannozzi et al., J. Phys.:Condens. Matter 21 395502 (2009);
         "P. Giannozzi et al., J. Phys.:Condens. Matter 29 465901 (2017);
          URL http://www.quantum-espresso.org", 
     in publications or presentations arising from this work. More details at
     http://www.quantum-espresso.org/quote

     Parallel version (MPI), running on     1 processors

     MPI processes distributed on     1 nodes
     Waiting for input...
     Reading input from standard input
Warning: card SENT FROM MAIL FOR WINDOWS ignored

     Current dimensions of program PWSCF are:
     Max number of different atomic species (ntypx) = 10
     Max number of k-points (npk) =  40000
     Max angular momentum in pseudopotentials (lmaxx) =  3
     file K.pbe-mt_fhi.UPF: wavefunction(s)  4p 3d 4f renormalized

     Subspace diagonalization in iterative solution of the eigenvalue problem:
     a serial algorithm will be used


     G-vector sticks info
     --------------------
     sticks:   dense  smooth     PW     G-vecs:    dense   smooth      PW
     Sum         977     977    283                19237    19237    3103



     bravais-lattice index     =            3
     lattice parameter (alat)  =       8.5000  a.u.
     unit-cell volume          =     307.0625 (a.u.)^3
     number of atoms/cell      =            1
     number of atomic types    =            1
     number of electrons       =         1.00
     number of Kohn-Sham states=            5
     kinetic-energy cutoff     =      60.0000  Ry
     charge density cutoff     =     240.0000  Ry
     scf convergence threshold =      1.0E-06
     mixing beta               =       0.7000
     number of iterations used =            8  plain     mixing
     Exchange-correlation= PBE
                           (   1   4   3   4   0   0   0)

     celldm(1)=   8.500000  celldm(2)=   0.000000  celldm(3)=   0.000000
     celldm(4)=   0.000000  celldm(5)=   0.000000  celldm(6)=   0.000000

     crystal axes: (cart. coord. in units of alat)
               a(1) = (   0.500000   0.500000   0.500000 )  
               a(2) = (  -0.500000   0.500000   0.500000 )  
               a(3) = (  -0.500000  -0.500000   0.500000 )  

     reciprocal axes: (cart. coord. in units 2 pi/alat)
               b(1) = (  1.000000  0.000000  1.000000 )  
               b(2) = ( -1.000000  1.000000  0.000000 )  
               b(3) = (  0.000000 -1.000000  1.000000 )  


     PseudoPot. # 1 for K  read from file:
     ./K.pbe-mt_fhi.UPF
     MD5 check sum: be3a3788e029af498c3454134aaf9ef1
     Pseudo is Norm-conserving + core correction, Zval =  1.0
     Generated using FHI98PP, converted with fhi2upf.x v.5.0.2
     Using radial grid of  509 points,  3 beta functions with: 
                l(1) =   1
                l(2) =   2
                l(3) =   3

     atomic species   valence    mass     pseudopotential
        K              1.00    39.09830     K ( 1.00)

     48 Sym. Ops., with inversion, found



   Cartesian axes

     site n.     atom                  positions (alat units)
         1           K   tau(   1) = (   0.0000000   0.0000000   0.0000000  )

     number of k points=    26  Marzari-Vanderbilt smearing, width (Ry)=  0.0400
                       cart. coord. in units 2pi/alat
        k(    1) = (   0.0000000   0.0000000   0.1250000), wk =   0.0234375
        k(    2) = (   0.0000000  -0.1250000   0.2500000), wk =   0.0937500
        k(    3) = (   0.0000000  -0.2500000   0.3750000), wk =   0.0937500
        k(    4) = (   0.0000000  -0.3750000   0.5000000), wk =   0.0937500
        k(    5) = (  -0.1250000   0.1250000   0.1250000), wk =   0.0312500
        k(    6) = (  -0.1250000  -0.1250000   0.3750000), wk =   0.0937500
        k(    7) = (  -0.1250000  -0.2500000   0.5000000), wk =   0.1875000
        k(    8) = (  -0.1250000   0.6250000  -0.3750000), wk =   0.0937500
        k(    9) = (  -0.2500000   0.2500000   0.1250000), wk =   0.0937500
        k(   10) = (  -0.2500000   0.7500000  -0.3750000), wk =   0.0937500
        k(   11) = (  -0.3750000   0.3750000   0.1250000), wk =   0.0937500
        k(   12) = (  -0.3750000   0.2500000   0.2500000), wk =   0.0937500
        k(   13) = (   0.5000000  -0.5000000   0.1250000), wk =   0.0468750
        k(   14) = (   0.5000000  -0.6250000   0.2500000), wk =   0.1875000
        k(   15) = (   0.3750000  -0.6250000   0.3750000), wk =   0.0312500
        k(   16) = (   0.0000000   0.0000000   0.3750000), wk =   0.0234375
        k(   17) = (   0.0000000  -0.1250000   0.5000000), wk =   0.0937500
        k(   18) = (   0.0000000  -0.2500000   0.6250000), wk =   0.0937500
        k(   19) = (  -0.1250000  -0.1250000   0.6250000), wk =   0.0937500
        k(   20) = (  -0.1250000   0.7500000  -0.2500000), wk =   0.0937500
        k(   21) = (   0.6250000  -0.6250000   0.3750000), wk =   0.0312500
        k(   22) = (   0.5000000  -0.5000000   0.3750000), wk =   0.0468750
        k(   23) = (   0.0000000   0.0000000   0.6250000), wk =   0.0234375
        k(   24) = (   0.0000000  -0.1250000   0.7500000), wk =   0.0937500
        k(   25) = (  -0.1250000   0.8750000  -0.1250000), wk =   0.0312500
        k(   26) = (   0.0000000   0.0000000   0.8750000), wk =   0.0234375

     Dense  grid:    19237 G-vectors     FFT dimensions: (  40,  40,  40)

     Estimated max dynamical RAM per process >      19.59 MB

     Initial potential from superposition of free atoms

     starting charge    0.98381, renormalised to    1.00000
     Starting wfcs are   16 randomized atomic wfcs

     total cpu time spent up to now is        0.6 secs

     Self-consistent Calculation

     iteration #  1     ecut=    60.00 Ry     beta= 0.70
     Davidson diagonalization with overlap
     ethr =  1.00E-02,  avg # of iterations =  5.5

     Threshold (ethr) on eigenvalues was too large:
     Diagonalizing with lowered threshold

     Davidson diagonalization with overlap
     ethr =  9.39E-05,  avg # of iterations =  6.8

     total cpu time spent up to now is        2.6 secs

     total energy              =      -1.01745265 Ry
     estimated scf accuracy    <       0.00098628 Ry

     iteration #  2     ecut=    60.00 Ry     beta= 0.70
     Davidson diagonalization with overlap
     ethr =  9.86E-05,  avg # of iterations =  1.0

     total cpu time spent up to now is        3.4 secs

     total energy              =      -1.01748313 Ry
     estimated scf accuracy    <       0.00009031 Ry

     iteration #  3     ecut=    60.00 Ry     beta= 0.70
     Davidson diagonalization with overlap
     ethr =  9.03E-06,  avg # of iterations =  5.4

     total cpu time spent up to now is        4.5 secs

     End of self-consistent calculation

          k = 0.0000 0.0000 0.1250 (  2415 PWs)   bands (ev):

    -1.9175   5.5742   5.5743   5.7609   6.4760

          k = 0.0000-0.1250 0.2500 (  2403 PWs)   bands (ev):

    -1.4289   4.8058   5.1399   6.1326   6.1918

          k = 0.0000-0.2500 0.3750 (  2411 PWs)   bands (ev):

    -0.5026   3.4934   4.6444   6.2985   7.1039

          k = 0.0000-0.3750 0.5000 (  2403 PWs)   bands (ev):

     0.7444   2.1312   4.3556   6.4009   7.4041

          k =-0.1250 0.1250 0.1250 (  2409 PWs)   bands (ev):

    -1.6710   5.1604   5.1605   6.0686   6.7179

          k =-0.1250-0.1250 0.3750 (  2414 PWs)   bands (ev):

    -0.7275   4.0085   4.6391   5.9653   6.7329

          k =-0.1250-0.2500 0.5000 (  2403 PWs)   bands (ev):

     0.3493   2.9018   4.1658   6.1464   7.2174

          k =-0.1250 0.6250-0.3750 (  2413 PWs)   bands (ev):

     1.6078   1.6630   3.9903   6.1392   7.2999

          k =-0.2500 0.2500 0.1250 (  2407 PWs)   bands (ev):

    -0.9557   4.1036   4.5756   6.7188   6.7621

          k =-0.2500 0.7500-0.3750 (  2423 PWs)   bands (ev):

     1.4516   2.3985   3.3127   6.5643   6.9310

          k =-0.3750 0.3750 0.1250 (  2404 PWs)   bands (ev):

     0.1473   2.8317   4.1729   6.8901   7.2458

          k =-0.3750 0.2500 0.2500 (  2405 PWs)   bands (ev):

    -0.0605   3.3828   3.8374   6.8945   7.2549

          k = 0.5000-0.5000 0.1250 (  2398 PWs)   bands (ev):

     1.4436   1.5144   4.0328   6.8224   7.5093

          k = 0.5000-0.6250 0.2500 (  2405 PWs)   bands (ev):

     1.1267   2.3695   3.4626   6.8859   7.3715

          k = 0.3750-0.6250 0.3750 (  2409 PWs)   bands (ev):

     2.0784   2.0785   2.7776   7.3303   7.3304

          k = 0.0000 0.0000 0.3750 (  2415 PWs)   bands (ev):

    -0.9582   4.7227   5.0979   5.0981   6.3213

          k = 0.0000-0.1250 0.5000 (  2422 PWs)   bands (ev):

    -0.0730   3.5605   4.8349   5.2546   7.0276

          k = 0.0000-0.2500 0.6250 (  2416 PWs)   bands (ev):

     1.0975   2.3633   4.6264   5.2260   7.0206

          k =-0.1250-0.1250 0.6250 (  2425 PWs)   bands (ev):

     0.9055   2.8909   4.2811   5.5754   6.5953

          k =-0.1250 0.7500-0.2500 (  2417 PWs)   bands (ev):

     1.8764   2.1371   3.8847   5.7649   6.6562

          k = 0.6250-0.6250 0.3750 (  2406 PWs)   bands (ev):

     0.9461   3.0145   3.0145   6.9088   7.4317

          k = 0.5000-0.5000 0.3750 (  2394 PWs)   bands (ev):

     1.9712   2.1666   2.8947   6.3234   7.5114

          k = 0.0000 0.0000 0.6250 (  2418 PWs)   bands (ev):

     0.7073   3.2362   5.0229   5.0229   6.2586

          k = 0.0000-0.1250 0.7500 (  2416 PWs)   bands (ev):

     1.6511   2.5747   4.8359   5.0696   6.1976

          k =-0.1250 0.8750-0.1250 (  2424 PWs)   bands (ev):

     2.2447   2.2448   4.4548   5.8435   5.8435

          k = 0.0000 0.0000 0.8750 (  2434 PWs)   bands (ev):

     2.1615   2.4528   5.4442   5.4445   5.5070

     the Fermi energy is     0.6980 ev

!    total energy              =      -1.01750070 Ry
     estimated scf accuracy    <       0.00000005 Ry
     smearing contrib. (-TS)   =      -0.00046279 Ry
     internal energy E=F+TS    =      -1.01703791 Ry

     The total energy is F=E-TS. E is the sum of the following terms:
     one-electron contribution =       0.39240462 Ry
     hartree contribution      =       0.00365184 Ry
     xc contribution           =      -0.98494925 Ry
     ewald contribution        =      -0.42814511 Ry

     convergence has been achieved in   3 iterations

     Writing output data file ./K.save/

     init_run     :      2.76s CPU      0.56s WALL (       1 calls)
     electrons    :     20.23s CPU      3.91s WALL (       1 calls)

     Called by init_run:
     wfcinit      :      2.71s CPU      0.51s WALL (       1 calls)
     potinit      :      0.02s CPU      0.02s WALL (       1 calls)
     hinit0       :      0.02s CPU      0.02s WALL (       1 calls)

     Called by electrons:
     c_bands      :     17.99s CPU      3.37s WALL (       4 calls)
     sum_band     :      2.16s CPU      0.48s WALL (       4 calls)
     v_of_rho     :      0.07s CPU      0.08s WALL (       4 calls)
     mix_rho      :      0.01s CPU      0.01s WALL (       4 calls)

     Called by c_bands:
     init_us_2    :      0.69s CPU      0.13s WALL (     234 calls)
     cegterg      :     16.65s CPU      3.13s WALL (     104 calls)

     Called by *egterg:
     cdiaghg      :      0.17s CPU      0.03s WALL (     564 calls)
     h_psi        :     17.32s CPU      3.26s WALL (     616 calls)
     g_psi        :      0.12s CPU      0.02s WALL (     486 calls)

     Called by h_psi:
     h_psi:calbec :      0.85s CPU      0.19s WALL (     616 calls)
     vloc_psi     :     14.95s CPU      2.77s WALL (     616 calls)
     add_vuspsi   :      1.45s CPU      0.28s WALL (     616 calls)

     General routines
     calbec       :      0.84s CPU      0.19s WALL (     616 calls)
     fft          :      0.04s CPU      0.04s WALL (      41 calls)
     ffts         :      0.00s CPU      0.00s WALL (       4 calls)
     fftw         :     14.69s CPU      2.77s WALL (    5336 calls)

     Parallel routines

     PWSCF        :     23.01s CPU      4.50s WALL


   This run was terminated on:  21:25:46  19Mar2023            

=------------------------------------------------------------------------------=
   JOB DONE.
=------------------------------------------------------------------------------=
