
     Program PWSCF v.6.7MaX starts on 19Jan2023 at 21:29:41 

     This program is part of the open-source Quantum ESPRESSO suite
     for quantum simulation of materials; please cite
         "P. Giannozzi et al., J. Phys.:Condens. Matter 21 395502 (2009);
         "P. Giannozzi et al., J. Phys.:Condens. Matter 29 465901 (2017);
          URL http://www.quantum-espresso.org", 
     in publications or presentations arising from this work. More details at
     http://www.quantum-espresso.org/quote

     Parallel version (MPI), running on     1 processors

     MPI processes distributed on     1 nodes
     Waiting for input...
     Reading input from standard input
Warning: card SENT FROM MAIL FOR WINDOWS ignored

     Current dimensions of program PWSCF are:
     Max number of different atomic species (ntypx) = 10
     Max number of k-points (npk) =  40000
     Max angular momentum in pseudopotentials (lmaxx) =  3
     file K.pbe-mt_fhi.UPF: wavefunction(s)  4p 3d 4f renormalized

     Subspace diagonalization in iterative solution of the eigenvalue problem:
     a serial algorithm will be used


     G-vector sticks info
     --------------------
     sticks:   dense  smooth     PW     G-vecs:    dense   smooth      PW
     Sum        1423    1423    411                34221    34221    5425



     bravais-lattice index     =            3
     lattice parameter (alat)  =      10.3000  a.u.
     unit-cell volume          =     546.3635 (a.u.)^3
     number of atoms/cell      =            1
     number of atomic types    =            1
     number of electrons       =         1.00
     number of Kohn-Sham states=            5
     kinetic-energy cutoff     =      60.0000  Ry
     charge density cutoff     =     240.0000  Ry
     scf convergence threshold =      1.0E-06
     mixing beta               =       0.7000
     number of iterations used =            8  plain     mixing
     Exchange-correlation= PBE
                           (   1   4   3   4   0   0   0)

     celldm(1)=  10.300000  celldm(2)=   0.000000  celldm(3)=   0.000000
     celldm(4)=   0.000000  celldm(5)=   0.000000  celldm(6)=   0.000000

     crystal axes: (cart. coord. in units of alat)
               a(1) = (   0.500000   0.500000   0.500000 )  
               a(2) = (  -0.500000   0.500000   0.500000 )  
               a(3) = (  -0.500000  -0.500000   0.500000 )  

     reciprocal axes: (cart. coord. in units 2 pi/alat)
               b(1) = (  1.000000  0.000000  1.000000 )  
               b(2) = ( -1.000000  1.000000  0.000000 )  
               b(3) = (  0.000000 -1.000000  1.000000 )  


     PseudoPot. # 1 for K  read from file:
     ./K.pbe-mt_fhi.UPF
     MD5 check sum: be3a3788e029af498c3454134aaf9ef1
     Pseudo is Norm-conserving + core correction, Zval =  1.0
     Generated using FHI98PP, converted with fhi2upf.x v.5.0.2
     Using radial grid of  509 points,  3 beta functions with: 
                l(1) =   1
                l(2) =   2
                l(3) =   3

     atomic species   valence    mass     pseudopotential
        K              1.00    39.09830     K ( 1.00)

     48 Sym. Ops., with inversion, found



   Cartesian axes

     site n.     atom                  positions (alat units)
         1           K   tau(   1) = (   0.0000000   0.0000000   0.0000000  )

     number of k points=    26  Marzari-Vanderbilt smearing, width (Ry)=  0.0400
                       cart. coord. in units 2pi/alat
        k(    1) = (   0.0000000   0.0000000   0.1250000), wk =   0.0234375
        k(    2) = (   0.0000000  -0.1250000   0.2500000), wk =   0.0937500
        k(    3) = (   0.0000000  -0.2500000   0.3750000), wk =   0.0937500
        k(    4) = (   0.0000000  -0.3750000   0.5000000), wk =   0.0937500
        k(    5) = (  -0.1250000   0.1250000   0.1250000), wk =   0.0312500
        k(    6) = (  -0.1250000  -0.1250000   0.3750000), wk =   0.0937500
        k(    7) = (  -0.1250000  -0.2500000   0.5000000), wk =   0.1875000
        k(    8) = (  -0.1250000   0.6250000  -0.3750000), wk =   0.0937500
        k(    9) = (  -0.2500000   0.2500000   0.1250000), wk =   0.0937500
        k(   10) = (  -0.2500000   0.7500000  -0.3750000), wk =   0.0937500
        k(   11) = (  -0.3750000   0.3750000   0.1250000), wk =   0.0937500
        k(   12) = (  -0.3750000   0.2500000   0.2500000), wk =   0.0937500
        k(   13) = (   0.5000000  -0.5000000   0.1250000), wk =   0.0468750
        k(   14) = (   0.5000000  -0.6250000   0.2500000), wk =   0.1875000
        k(   15) = (   0.3750000  -0.6250000   0.3750000), wk =   0.0312500
        k(   16) = (   0.0000000   0.0000000   0.3750000), wk =   0.0234375
        k(   17) = (   0.0000000  -0.1250000   0.5000000), wk =   0.0937500
        k(   18) = (   0.0000000  -0.2500000   0.6250000), wk =   0.0937500
        k(   19) = (  -0.1250000  -0.1250000   0.6250000), wk =   0.0937500
        k(   20) = (  -0.1250000   0.7500000  -0.2500000), wk =   0.0937500
        k(   21) = (   0.6250000  -0.6250000   0.3750000), wk =   0.0312500
        k(   22) = (   0.5000000  -0.5000000   0.3750000), wk =   0.0468750
        k(   23) = (   0.0000000   0.0000000   0.6250000), wk =   0.0234375
        k(   24) = (   0.0000000  -0.1250000   0.7500000), wk =   0.0937500
        k(   25) = (  -0.1250000   0.8750000  -0.1250000), wk =   0.0312500
        k(   26) = (   0.0000000   0.0000000   0.8750000), wk =   0.0234375

     Dense  grid:    34221 G-vectors     FFT dimensions: (  45,  45,  45)

     Estimated max dynamical RAM per process >      32.90 MB

     Initial potential from superposition of free atoms

     starting charge    0.98381, renormalised to    1.00000
     Starting wfcs are   16 randomized atomic wfcs

     total cpu time spent up to now is        0.9 secs

     Self-consistent Calculation

     iteration #  1     ecut=    60.00 Ry     beta= 0.70
     Davidson diagonalization with overlap
     ethr =  1.00E-02,  avg # of iterations =  7.0

     Threshold (ethr) on eigenvalues was too large:
     Diagonalizing with lowered threshold

     Davidson diagonalization with overlap
     c_bands:  1 eigenvalues not converged
     ethr =  5.39E-05,  avg # of iterations = 11.6

     total cpu time spent up to now is        5.8 secs

     total energy              =      -1.02659096 Ry
     estimated scf accuracy    <       0.00062704 Ry

     iteration #  2     ecut=    60.00 Ry     beta= 0.70
     Davidson diagonalization with overlap
     ethr =  6.27E-05,  avg # of iterations =  1.0

     total cpu time spent up to now is        6.8 secs

     total energy              =      -1.02662013 Ry
     estimated scf accuracy    <       0.00006232 Ry

     iteration #  3     ecut=    60.00 Ry     beta= 0.70
     Davidson diagonalization with overlap
     c_bands:  1 eigenvalues not converged
     c_bands:  1 eigenvalues not converged
     c_bands:  1 eigenvalues not converged
     ethr =  6.23E-06,  avg # of iterations =  6.2

     total cpu time spent up to now is        8.1 secs

     End of self-consistent calculation

          k = 0.0000 0.0000 0.1250 (  4261 PWs)   bands (ev):

    -2.4578   3.6957   3.6965   3.8631   4.3132

          k = 0.0000-0.1250 0.2500 (  4267 PWs)   bands (ev):

    -2.1309   2.9910   3.3562   4.0524   4.0765

          k = 0.0000-0.2500 0.3750 (  4288 PWs)   bands (ev):

    -1.4913   1.8040   2.9920   4.0401   4.5013

          k = 0.0000-0.3750 0.5000 (  4290 PWs)   bands (ev):

    -0.5733   0.5666   2.7812   3.9331   4.9316

          k =-0.1250 0.1250 0.1250 (  4258 PWs)   bands (ev):

    -2.2937   3.3620   3.3626   3.9590   4.5013

          k =-0.1250-0.1250 0.3750 (  4293 PWs)   bands (ev):

    -1.6493   2.3480   2.7981   3.9105   4.2938

          k =-0.1250-0.2500 0.5000 (  4284 PWs)   bands (ev):

    -0.8734   1.3077   2.3616   3.8950   4.4525

          k =-0.1250 0.6250-0.3750 (  4295 PWs)   bands (ev):

     0.0713   0.2291   2.2255   3.7844   4.8225

          k =-0.2500 0.2500 0.1250 (  4289 PWs)   bands (ev):

    -1.8085   2.3970   2.9056   4.1362   4.5699

          k =-0.2500 0.7500-0.3750 (  4285 PWs)   bands (ev):

    -0.0059   0.8965   1.4148   4.1341   4.2658

          k =-0.3750 0.3750 0.1250 (  4277 PWs)   bands (ev):

    -1.0253   1.2026   2.5938   4.0848   4.8203

          k =-0.3750 0.2500 0.2500 (  4288 PWs)   bands (ev):

    -1.1791   1.7964   2.1705   3.8189   4.6352

          k = 0.5000-0.5000 0.1250 (  4282 PWs)   bands (ev):

    -0.0483   0.0682   2.4852   3.9438   4.9923

          k = 0.5000-0.6250 0.2500 (  4288 PWs)   bands (ev):

    -0.2843   0.8071   1.8227   3.4580   4.8018

          k = 0.3750-0.6250 0.3750 (  4285 PWs)   bands (ev):

     0.5459   0.5459   1.0596   3.2278   4.9269

          k = 0.0000 0.0000 0.3750 (  4305 PWs)   bands (ev):

    -1.8086   3.0307   3.1340   3.1347   4.2551

          k = 0.0000-0.1250 0.5000 (  4298 PWs)   bands (ev):

    -1.1797   1.9789   2.8614   3.1648   4.4989

          k = 0.0000-0.2500 0.6250 (  4294 PWs)   bands (ev):

    -0.2845   0.8283   2.6926   3.0317   4.4400

          k =-0.1250-0.1250 0.6250 (  4279 PWs)   bands (ev):

    -0.4297   1.4557   2.1167   3.3494   4.0288

          k =-0.1250 0.7500-0.2500 (  4284 PWs)   bands (ev):

     0.4230   0.6594   1.7945   3.4488   4.0683

          k = 0.6250-0.6250 0.3750 (  4273 PWs)   bands (ev):

    -0.4289   1.4579   1.4580   2.9281   5.0312

          k = 0.5000-0.5000 0.3750 (  4274 PWs)   bands (ev):

     0.4277   0.6277   1.3437   2.5494   5.0822

          k = 0.0000 0.0000 0.6250 (  4305 PWs)   bands (ev):

    -0.5771   1.9671   2.6885   2.6886   3.5926

          k = 0.0000-0.1250 0.7500 (  4308 PWs)   bands (ev):

     0.2575   1.2559   2.4693   2.5749   3.4922

          k =-0.1250 0.8750-0.1250 (  4304 PWs)   bands (ev):

     0.9697   0.9698   1.8657   3.1027   3.1028

          k = 0.0000 0.0000 0.8750 (  4300 PWs)   bands (ev):

     0.9446   1.4087   2.4972   2.4973   2.6480

     the Fermi energy is    -0.6032 ev

!    total energy              =      -1.02662317 Ry
     estimated scf accuracy    <       0.00000003 Ry
     smearing contrib. (-TS)   =      -0.00115626 Ry
     internal energy E=F+TS    =      -1.02546691 Ry

     The total energy is F=E-TS. E is the sum of the following terms:
     one-electron contribution =       0.23870074 Ry
     hartree contribution      =       0.00146868 Ry
     xc contribution           =      -0.91231269 Ry
     ewald contribution        =      -0.35332364 Ry

     convergence has been achieved in   3 iterations

     Writing output data file ./K.save/

     init_run     :      5.00s CPU      0.89s WALL (       1 calls)
     electrons    :     42.45s CPU      7.19s WALL (       1 calls)

     Called by init_run:
     wfcinit      :      4.93s CPU      0.81s WALL (       1 calls)
     potinit      :      0.03s CPU      0.03s WALL (       1 calls)
     hinit0       :      0.02s CPU      0.03s WALL (       1 calls)

     Called by electrons:
     c_bands      :     39.74s CPU      6.52s WALL (       4 calls)
     sum_band     :      2.63s CPU      0.60s WALL (       4 calls)
     v_of_rho     :      0.08s CPU      0.08s WALL (       4 calls)
     mix_rho      :      0.00s CPU      0.01s WALL (       4 calls)

     Called by c_bands:
     init_us_2    :      1.31s CPU      0.23s WALL (     234 calls)
     cegterg      :     37.14s CPU      6.07s WALL (     104 calls)

     Called by *egterg:
     cdiaghg      :      0.20s CPU      0.03s WALL (     750 calls)
     h_psi        :     38.77s CPU      6.37s WALL (     802 calls)
     g_psi        :      0.37s CPU      0.05s WALL (     672 calls)

     Called by h_psi:
     h_psi:calbec :      0.51s CPU      0.08s WALL (     802 calls)
     vloc_psi     :     37.44s CPU      6.14s WALL (     802 calls)
     add_vuspsi   :      0.66s CPU      0.13s WALL (     802 calls)

     General routines
     calbec       :      0.50s CPU      0.08s WALL (     802 calls)
     fft          :      0.03s CPU      0.03s WALL (      41 calls)
     ffts         :      0.00s CPU      0.00s WALL (       4 calls)
     fftw         :     35.00s CPU      5.85s WALL (    6250 calls)

     Parallel routines

     PWSCF        :     47.47s CPU      8.12s WALL


   This run was terminated on:  21:29:49  19Jan2023            

=------------------------------------------------------------------------------=
   JOB DONE.
=------------------------------------------------------------------------------=
