
     Program PWSCF v.6.7MaX starts on 19Mar2023 at 21:26: 3 

     This program is part of the open-source Quantum ESPRESSO suite
     for quantum simulation of materials; please cite
         "P. Giannozzi et al., J. Phys.:Condens. Matter 21 395502 (2009);
         "P. Giannozzi et al., J. Phys.:Condens. Matter 29 465901 (2017);
          URL http://www.quantum-espresso.org", 
     in publications or presentations arising from this work. More details at
     http://www.quantum-espresso.org/quote

     Parallel version (MPI), running on     1 processors

     MPI processes distributed on     1 nodes
     Waiting for input...
     Reading input from standard input
Warning: card SENT FROM MAIL FOR WINDOWS ignored

     Current dimensions of program PWSCF are:
     Max number of different atomic species (ntypx) = 10
     Max number of k-points (npk) =  40000
     Max angular momentum in pseudopotentials (lmaxx) =  3
     file K.pbe-mt_fhi.UPF: wavefunction(s)  4p 3d 4f renormalized

     Subspace diagonalization in iterative solution of the eigenvalue problem:
     a serial algorithm will be used


     G-vector sticks info
     --------------------
     sticks:   dense  smooth     PW     G-vecs:    dense   smooth      PW
     Sum        1043    1043    311                21457    21457    3463



     bravais-lattice index     =            3
     lattice parameter (alat)  =       8.8000  a.u.
     unit-cell volume          =     340.7360 (a.u.)^3
     number of atoms/cell      =            1
     number of atomic types    =            1
     number of electrons       =         1.00
     number of Kohn-Sham states=            5
     kinetic-energy cutoff     =      60.0000  Ry
     charge density cutoff     =     240.0000  Ry
     scf convergence threshold =      1.0E-06
     mixing beta               =       0.7000
     number of iterations used =            8  plain     mixing
     Exchange-correlation= PBE
                           (   1   4   3   4   0   0   0)

     celldm(1)=   8.800000  celldm(2)=   0.000000  celldm(3)=   0.000000
     celldm(4)=   0.000000  celldm(5)=   0.000000  celldm(6)=   0.000000

     crystal axes: (cart. coord. in units of alat)
               a(1) = (   0.500000   0.500000   0.500000 )  
               a(2) = (  -0.500000   0.500000   0.500000 )  
               a(3) = (  -0.500000  -0.500000   0.500000 )  

     reciprocal axes: (cart. coord. in units 2 pi/alat)
               b(1) = (  1.000000  0.000000  1.000000 )  
               b(2) = ( -1.000000  1.000000  0.000000 )  
               b(3) = (  0.000000 -1.000000  1.000000 )  


     PseudoPot. # 1 for K  read from file:
     ./K.pbe-mt_fhi.UPF
     MD5 check sum: be3a3788e029af498c3454134aaf9ef1
     Pseudo is Norm-conserving + core correction, Zval =  1.0
     Generated using FHI98PP, converted with fhi2upf.x v.5.0.2
     Using radial grid of  509 points,  3 beta functions with: 
                l(1) =   1
                l(2) =   2
                l(3) =   3

     atomic species   valence    mass     pseudopotential
        K              1.00    39.09830     K ( 1.00)

     48 Sym. Ops., with inversion, found



   Cartesian axes

     site n.     atom                  positions (alat units)
         1           K   tau(   1) = (   0.0000000   0.0000000   0.0000000  )

     number of k points=    26  Marzari-Vanderbilt smearing, width (Ry)=  0.0400
                       cart. coord. in units 2pi/alat
        k(    1) = (   0.0000000   0.0000000   0.1250000), wk =   0.0234375
        k(    2) = (   0.0000000  -0.1250000   0.2500000), wk =   0.0937500
        k(    3) = (   0.0000000  -0.2500000   0.3750000), wk =   0.0937500
        k(    4) = (   0.0000000  -0.3750000   0.5000000), wk =   0.0937500
        k(    5) = (  -0.1250000   0.1250000   0.1250000), wk =   0.0312500
        k(    6) = (  -0.1250000  -0.1250000   0.3750000), wk =   0.0937500
        k(    7) = (  -0.1250000  -0.2500000   0.5000000), wk =   0.1875000
        k(    8) = (  -0.1250000   0.6250000  -0.3750000), wk =   0.0937500
        k(    9) = (  -0.2500000   0.2500000   0.1250000), wk =   0.0937500
        k(   10) = (  -0.2500000   0.7500000  -0.3750000), wk =   0.0937500
        k(   11) = (  -0.3750000   0.3750000   0.1250000), wk =   0.0937500
        k(   12) = (  -0.3750000   0.2500000   0.2500000), wk =   0.0937500
        k(   13) = (   0.5000000  -0.5000000   0.1250000), wk =   0.0468750
        k(   14) = (   0.5000000  -0.6250000   0.2500000), wk =   0.1875000
        k(   15) = (   0.3750000  -0.6250000   0.3750000), wk =   0.0312500
        k(   16) = (   0.0000000   0.0000000   0.3750000), wk =   0.0234375
        k(   17) = (   0.0000000  -0.1250000   0.5000000), wk =   0.0937500
        k(   18) = (   0.0000000  -0.2500000   0.6250000), wk =   0.0937500
        k(   19) = (  -0.1250000  -0.1250000   0.6250000), wk =   0.0937500
        k(   20) = (  -0.1250000   0.7500000  -0.2500000), wk =   0.0937500
        k(   21) = (   0.6250000  -0.6250000   0.3750000), wk =   0.0312500
        k(   22) = (   0.5000000  -0.5000000   0.3750000), wk =   0.0468750
        k(   23) = (   0.0000000   0.0000000   0.6250000), wk =   0.0234375
        k(   24) = (   0.0000000  -0.1250000   0.7500000), wk =   0.0937500
        k(   25) = (  -0.1250000   0.8750000  -0.1250000), wk =   0.0312500
        k(   26) = (   0.0000000   0.0000000   0.8750000), wk =   0.0234375

     Dense  grid:    21457 G-vectors     FFT dimensions: (  40,  40,  40)

     Estimated max dynamical RAM per process >      21.25 MB

     Initial potential from superposition of free atoms

     starting charge    0.98381, renormalised to    1.00000
     Starting wfcs are   16 randomized atomic wfcs

     total cpu time spent up to now is        0.6 secs

     Self-consistent Calculation

     iteration #  1     ecut=    60.00 Ry     beta= 0.70
     Davidson diagonalization with overlap
     ethr =  1.00E-02,  avg # of iterations =  6.0

     Threshold (ethr) on eigenvalues was too large:
     Diagonalizing with lowered threshold

     Davidson diagonalization with overlap
     ethr =  7.93E-05,  avg # of iterations =  7.9

     total cpu time spent up to now is        4.1 secs

     total energy              =      -1.02307678 Ry
     estimated scf accuracy    <       0.00084082 Ry

     iteration #  2     ecut=    60.00 Ry     beta= 0.70
     Davidson diagonalization with overlap
     ethr =  8.41E-05,  avg # of iterations =  1.0

     total cpu time spent up to now is        4.9 secs

     total energy              =      -1.02309800 Ry
     estimated scf accuracy    <       0.00007872 Ry

     iteration #  3     ecut=    60.00 Ry     beta= 0.70
     Davidson diagonalization with overlap
     c_bands:  1 eigenvalues not converged
     c_bands:  2 eigenvalues not converged
     ethr =  7.87E-06,  avg # of iterations =  5.3

     total cpu time spent up to now is        5.9 secs

     End of self-consistent calculation

          k = 0.0000 0.0000 0.1250 (  2683 PWs)   bands (ev):

    -2.0743   5.1976   5.1978   5.3796   6.0373

          k = 0.0000-0.1250 0.2500 (  2676 PWs)   bands (ev):

    -1.6207   4.4422   4.7850   5.7130   5.7671

          k = 0.0000-0.2500 0.3750 (  2681 PWs)   bands (ev):

    -0.7537   3.1481   4.3159   5.8435   6.5623

          k = 0.0000-0.3750 0.5000 (  2675 PWs)   bands (ev):

     0.4343   1.7879   4.0434   5.9060   6.8980

          k =-0.1250 0.1250 0.1250 (  2689 PWs)   bands (ev):

    -1.8458   4.8010   4.8030   5.6428   6.2653

          k =-0.1250-0.1250 0.3750 (  2685 PWs)   bands (ev):

    -0.9653   3.6732   4.2761   5.5495   6.2444

          k =-0.1250-0.2500 0.5000 (  2671 PWs)   bands (ev):

     0.0534   2.5706   3.8098   5.6942   6.6761

          k =-0.1250 0.6250-0.3750 (  2674 PWs)   bands (ev):

     1.2433   1.3610   3.6421   5.6629   6.7836

          k =-0.2500 0.2500 0.1250 (  2686 PWs)   bands (ev):

    -1.1795   3.7598   4.2426   6.2742   6.3647

          k =-0.2500 0.7500-0.3750 (  2664 PWs)   bands (ev):

     1.1171   2.0736   2.9341   6.0922   6.3889

          k =-0.3750 0.3750 0.1250 (  2677 PWs)   bands (ev):

    -0.1397   2.4885   3.8583   6.3797   6.7533

          k =-0.3750 0.2500 0.2500 (  2682 PWs)   bands (ev):

    -0.3383   3.0563   3.5048   6.4325   6.5971

          k = 0.5000-0.5000 0.1250 (  2676 PWs)   bands (ev):

     1.1357   1.1538   3.7242   6.2822   7.0109

          k = 0.5000-0.6250 0.2500 (  2671 PWs)   bands (ev):

     0.7964   2.0326   3.1328   6.2381   6.8083

          k = 0.3750-0.6250 0.3750 (  2679 PWs)   bands (ev):

     1.7321   1.7327   2.4364   6.8353   6.8360

          k = 0.0000 0.0000 0.3750 (  2671 PWs)   bands (ev):

    -1.1812   4.3828   4.7035   4.7049   5.9047

          k = 0.0000-0.1250 0.5000 (  2673 PWs)   bands (ev):

    -0.3466   3.2455   4.4400   4.8288   6.5388

          k = 0.0000-0.2500 0.6250 (  2667 PWs)   bands (ev):

     0.7780   2.0417   4.2418   4.7766   6.4733

          k =-0.1250-0.1250 0.6250 (  2669 PWs)   bands (ev):

     0.5943   2.5999   3.8448   5.1138   6.0591

          k =-0.1250 0.7500-0.2500 (  2667 PWs)   bands (ev):

     1.5530   1.8318   3.4559   5.2818   6.1004

          k = 0.6250-0.6250 0.3750 (  2697 PWs)   bands (ev):

     0.6202   2.6880   2.6881   6.0195   6.9380

          k = 0.5000-0.5000 0.3750 (  2694 PWs)   bands (ev):

     1.6178   1.8339   2.5672   5.4769   7.0072

          k = 0.0000 0.0000 0.6250 (  2675 PWs)   bands (ev):

     0.4061   2.9833   4.5406   4.5406   5.7114

          k = 0.0000-0.1250 0.7500 (  2657 PWs)   bands (ev):

     1.3490   2.3168   4.3255   4.5492   5.6027

          k =-0.1250 0.8750-0.1250 (  2661 PWs)   bands (ev):

     1.9869   1.9869   3.9033   5.2321   5.2323

          k = 0.0000 0.0000 0.8750 (  2678 PWs)   bands (ev):

     1.9210   2.2453   4.7892   4.7897   4.8535

     the Fermi energy is     0.3896 ev

!    total energy              =      -1.02310361 Ry
     estimated scf accuracy    <       0.00000002 Ry
     smearing contrib. (-TS)   =      -0.00056002 Ry
     internal energy E=F+TS    =      -1.02254359 Ry

     The total energy is F=E-TS. E is the sum of the following terms:
     one-electron contribution =       0.35713825 Ry
     hartree contribution      =       0.00323487 Ry
     xc contribution           =      -0.96936746 Ry
     ewald contribution        =      -0.41354926 Ry

     convergence has been achieved in   3 iterations

     Writing output data file ./K.save/

     init_run     :      3.21s CPU      0.62s WALL (       1 calls)
     electrons    :     27.39s CPU      5.27s WALL (       1 calls)

     Called by init_run:
     wfcinit      :      3.16s CPU      0.56s WALL (       1 calls)
     potinit      :      0.01s CPU      0.02s WALL (       1 calls)
     hinit0       :      0.02s CPU      0.03s WALL (       1 calls)

     Called by electrons:
     c_bands      :     25.05s CPU      4.70s WALL (       4 calls)
     sum_band     :      2.27s CPU      0.51s WALL (       4 calls)
     v_of_rho     :      0.07s CPU      0.07s WALL (       4 calls)
     mix_rho      :      0.00s CPU      0.01s WALL (       4 calls)

     Called by c_bands:
     init_us_2    :      0.85s CPU      0.16s WALL (     234 calls)
     cegterg      :     23.34s CPU      4.39s WALL (     104 calls)

     Called by *egterg:
     cdiaghg      :      0.19s CPU      0.03s WALL (     603 calls)
     h_psi        :     23.47s CPU      4.39s WALL (     655 calls)
     g_psi        :      0.16s CPU      0.03s WALL (     525 calls)

     Called by h_psi:
     h_psi:calbec :      2.10s CPU      0.46s WALL (     655 calls)
     vloc_psi     :     18.82s CPU      3.41s WALL (     655 calls)
     add_vuspsi   :      2.48s CPU      0.51s WALL (     655 calls)

     General routines
     calbec       :      2.09s CPU      0.46s WALL (     655 calls)
     fft          :      0.03s CPU      0.03s WALL (      41 calls)
     ffts         :      0.00s CPU      0.00s WALL (       4 calls)
     fftw         :     18.27s CPU      3.36s WALL (    5446 calls)

     Parallel routines

     PWSCF        :     30.61s CPU      5.92s WALL


   This run was terminated on:  21:26: 9  19Mar2023            

=------------------------------------------------------------------------------=
   JOB DONE.
=------------------------------------------------------------------------------=
