
     Program PWSCF v.6.7MaX starts on 19Mar2023 at 21:25:30 

     This program is part of the open-source Quantum ESPRESSO suite
     for quantum simulation of materials; please cite
         "P. Giannozzi et al., J. Phys.:Condens. Matter 21 395502 (2009);
         "P. Giannozzi et al., J. Phys.:Condens. Matter 29 465901 (2017);
          URL http://www.quantum-espresso.org", 
     in publications or presentations arising from this work. More details at
     http://www.quantum-espresso.org/quote

     Parallel version (MPI), running on     1 processors

     MPI processes distributed on     1 nodes
     Waiting for input...
     Reading input from standard input
Warning: card SENT FROM MAIL FOR WINDOWS ignored

     Current dimensions of program PWSCF are:
     Max number of different atomic species (ntypx) = 10
     Max number of k-points (npk) =  40000
     Max angular momentum in pseudopotentials (lmaxx) =  3
     file K.pbe-mt_fhi.UPF: wavefunction(s)  4p 3d 4f renormalized

     Subspace diagonalization in iterative solution of the eigenvalue problem:
     a serial algorithm will be used


     G-vector sticks info
     --------------------
     sticks:   dense  smooth     PW     G-vecs:    dense   smooth      PW
     Sum         917     917    277                17357    17357    2899



     bravais-lattice index     =            3
     lattice parameter (alat)  =       8.2000  a.u.
     unit-cell volume          =     275.6840 (a.u.)^3
     number of atoms/cell      =            1
     number of atomic types    =            1
     number of electrons       =         1.00
     number of Kohn-Sham states=            5
     kinetic-energy cutoff     =      60.0000  Ry
     charge density cutoff     =     240.0000  Ry
     scf convergence threshold =      1.0E-06
     mixing beta               =       0.7000
     number of iterations used =            8  plain     mixing
     Exchange-correlation= PBE
                           (   1   4   3   4   0   0   0)

     celldm(1)=   8.200000  celldm(2)=   0.000000  celldm(3)=   0.000000
     celldm(4)=   0.000000  celldm(5)=   0.000000  celldm(6)=   0.000000

     crystal axes: (cart. coord. in units of alat)
               a(1) = (   0.500000   0.500000   0.500000 )  
               a(2) = (  -0.500000   0.500000   0.500000 )  
               a(3) = (  -0.500000  -0.500000   0.500000 )  

     reciprocal axes: (cart. coord. in units 2 pi/alat)
               b(1) = (  1.000000  0.000000  1.000000 )  
               b(2) = ( -1.000000  1.000000  0.000000 )  
               b(3) = (  0.000000 -1.000000  1.000000 )  


     PseudoPot. # 1 for K  read from file:
     ./K.pbe-mt_fhi.UPF
     MD5 check sum: be3a3788e029af498c3454134aaf9ef1
     Pseudo is Norm-conserving + core correction, Zval =  1.0
     Generated using FHI98PP, converted with fhi2upf.x v.5.0.2
     Using radial grid of  509 points,  3 beta functions with: 
                l(1) =   1
                l(2) =   2
                l(3) =   3

     atomic species   valence    mass     pseudopotential
        K              1.00    39.09830     K ( 1.00)

     48 Sym. Ops., with inversion, found



   Cartesian axes

     site n.     atom                  positions (alat units)
         1           K   tau(   1) = (   0.0000000   0.0000000   0.0000000  )

     number of k points=    26  Marzari-Vanderbilt smearing, width (Ry)=  0.0400
                       cart. coord. in units 2pi/alat
        k(    1) = (   0.0000000   0.0000000   0.1250000), wk =   0.0234375
        k(    2) = (   0.0000000  -0.1250000   0.2500000), wk =   0.0937500
        k(    3) = (   0.0000000  -0.2500000   0.3750000), wk =   0.0937500
        k(    4) = (   0.0000000  -0.3750000   0.5000000), wk =   0.0937500
        k(    5) = (  -0.1250000   0.1250000   0.1250000), wk =   0.0312500
        k(    6) = (  -0.1250000  -0.1250000   0.3750000), wk =   0.0937500
        k(    7) = (  -0.1250000  -0.2500000   0.5000000), wk =   0.1875000
        k(    8) = (  -0.1250000   0.6250000  -0.3750000), wk =   0.0937500
        k(    9) = (  -0.2500000   0.2500000   0.1250000), wk =   0.0937500
        k(   10) = (  -0.2500000   0.7500000  -0.3750000), wk =   0.0937500
        k(   11) = (  -0.3750000   0.3750000   0.1250000), wk =   0.0937500
        k(   12) = (  -0.3750000   0.2500000   0.2500000), wk =   0.0937500
        k(   13) = (   0.5000000  -0.5000000   0.1250000), wk =   0.0468750
        k(   14) = (   0.5000000  -0.6250000   0.2500000), wk =   0.1875000
        k(   15) = (   0.3750000  -0.6250000   0.3750000), wk =   0.0312500
        k(   16) = (   0.0000000   0.0000000   0.3750000), wk =   0.0234375
        k(   17) = (   0.0000000  -0.1250000   0.5000000), wk =   0.0937500
        k(   18) = (   0.0000000  -0.2500000   0.6250000), wk =   0.0937500
        k(   19) = (  -0.1250000  -0.1250000   0.6250000), wk =   0.0937500
        k(   20) = (  -0.1250000   0.7500000  -0.2500000), wk =   0.0937500
        k(   21) = (   0.6250000  -0.6250000   0.3750000), wk =   0.0312500
        k(   22) = (   0.5000000  -0.5000000   0.3750000), wk =   0.0468750
        k(   23) = (   0.0000000   0.0000000   0.6250000), wk =   0.0234375
        k(   24) = (   0.0000000  -0.1250000   0.7500000), wk =   0.0937500
        k(   25) = (  -0.1250000   0.8750000  -0.1250000), wk =   0.0312500
        k(   26) = (   0.0000000   0.0000000   0.8750000), wk =   0.0234375

     Dense  grid:    17357 G-vectors     FFT dimensions: (  36,  36,  36)

     Estimated max dynamical RAM per process >      16.93 MB

     Initial potential from superposition of free atoms

     starting charge    0.98381, renormalised to    1.00000
     Starting wfcs are   16 randomized atomic wfcs

     total cpu time spent up to now is        0.4 secs

     Self-consistent Calculation

     iteration #  1     ecut=    60.00 Ry     beta= 0.70
     Davidson diagonalization with overlap
     ethr =  1.00E-02,  avg # of iterations =  5.5

     Threshold (ethr) on eigenvalues was too large:
     Diagonalizing with lowered threshold

     Davidson diagonalization with overlap
     ethr =  1.13E-04,  avg # of iterations =  6.8

     total cpu time spent up to now is        1.8 secs

     total energy              =      -1.00901980 Ry
     estimated scf accuracy    <       0.00115208 Ry

     iteration #  2     ecut=    60.00 Ry     beta= 0.70
     Davidson diagonalization with overlap
     ethr =  1.15E-04,  avg # of iterations =  1.0

     total cpu time spent up to now is        2.2 secs

     total energy              =      -1.00905010 Ry
     estimated scf accuracy    <       0.00010558 Ry

     iteration #  3     ecut=    60.00 Ry     beta= 0.70
     Davidson diagonalization with overlap
     ethr =  1.06E-05,  avg # of iterations =  3.7

     total cpu time spent up to now is        2.7 secs

     End of self-consistent calculation

          k = 0.0000 0.0000 0.1250 (  2158 PWs)   bands (ev):

    -1.7125   5.9851   5.9852   6.1770   6.9589

          k = 0.0000-0.1250 0.2500 (  2158 PWs)   bands (ev):

    -1.1842   5.2026   5.5266   6.5934   6.6594

          k = 0.0000-0.2500 0.3750 (  2162 PWs)   bands (ev):

    -0.1930   3.8742   5.0004   6.7934   7.6574

          k = 0.0000-0.3750 0.5000 (  2170 PWs)   bands (ev):

     1.1086   2.5279   4.6943   6.9420   7.9645

          k =-0.1250 0.1250 0.1250 (  2168 PWs)   bands (ev):

    -1.4455   5.5517   5.5523   6.5336   7.2152

          k =-0.1250-0.1250 0.3750 (  2172 PWs)   bands (ev):

    -0.4319   4.3750   5.0330   6.4205   7.2712

          k =-0.1250-0.2500 0.5000 (  2164 PWs)   bands (ev):

     0.7048   3.2695   4.5518   6.6418   7.8076

          k =-0.1250 0.6250-0.3750 (  2167 PWs)   bands (ev):

     2.0002   2.0409   4.3666   6.6600   7.8760

          k =-0.2500 0.2500 0.1250 (  2158 PWs)   bands (ev):

    -0.6753   4.4794   4.9376   7.2583   7.3069

          k =-0.2500 0.7500-0.3750 (  2169 PWs)   bands (ev):

     1.8422   2.7644   3.7242   7.0845   7.5165

          k =-0.3750 0.3750 0.1250 (  2158 PWs)   bands (ev):

     0.4938   3.2170   4.5148   7.4389   7.7878

          k =-0.3750 0.2500 0.2500 (  2166 PWs)   bands (ev):

     0.2785   3.7432   4.2013   7.4033   7.8738

          k = 0.5000-0.5000 0.1250 (  2162 PWs)   bands (ev):

     1.7677   1.9705   4.3677   7.4036   8.0606

          k = 0.5000-0.6250 0.2500 (  2170 PWs)   bands (ev):

     1.5159   2.7524   3.8232   7.5076   7.9711

          k = 0.3750-0.6250 0.3750 (  2187 PWs)   bands (ev):

     2.4781   2.4788   3.1487   7.8760   7.8765

          k = 0.0000 0.0000 0.3750 (  2154 PWs)   bands (ev):

    -0.6789   5.0927   5.5288   5.5289   6.7734

          k = 0.0000-0.1250 0.5000 (  2157 PWs)   bands (ev):

     0.2597   3.9028   5.2653   5.7231   7.5659

          k = 0.0000-0.2500 0.6250 (  2168 PWs)   bands (ev):

     1.4708   2.7221   5.0448   5.7201   7.6369

          k =-0.1250-0.1250 0.6250 (  2156 PWs)   bands (ev):

     1.2715   3.2088   4.7564   6.0859   7.1875

          k =-0.1250 0.7500-0.2500 (  2166 PWs)   bands (ev):

     2.2460   2.4743   4.3538   6.3014   7.2874

          k = 0.6250-0.6250 0.3750 (  2172 PWs)   bands (ev):

     1.3343   3.3780   3.3781   7.9766   7.9771

          k = 0.5000-0.5000 0.3750 (  2156 PWs)   bands (ev):

     2.3853   2.5441   3.2612   7.2891   8.0749

          k = 0.0000 0.0000 0.6250 (  2170 PWs)   bands (ev):

     1.0628   3.5107   5.5544   5.5544   6.8685

          k = 0.0000-0.1250 0.7500 (  2157 PWs)   bands (ev):

     1.9915   2.8525   5.4088   5.6433   6.8837

          k =-0.1250 0.8750-0.1250 (  2154 PWs)   bands (ev):

     2.5255   2.5255   5.0691   6.5443   6.5451

          k = 0.0000 0.0000 0.8750 (  2170 PWs)   bands (ev):

     2.4214   2.6776   6.1898   6.1911   6.2697

     the Fermi energy is     1.0634 ev

!    total energy              =      -1.00905855 Ry
     estimated scf accuracy    <       0.00000002 Ry
     smearing contrib. (-TS)   =      -0.00039303 Ry
     internal energy E=F+TS    =      -1.00866552 Ry

     The total energy is F=E-TS. E is the sum of the following terms:
     one-electron contribution =       0.43361593 Ry
     hartree contribution      =       0.00406784 Ry
     xc contribution           =      -1.00254032 Ry
     ewald contribution        =      -0.44380896 Ry

     convergence has been achieved in   3 iterations

     Writing output data file ./K.save/

     init_run     :      2.17s CPU      0.41s WALL (       1 calls)
     electrons    :     12.94s CPU      2.26s WALL (       1 calls)

     Called by init_run:
     wfcinit      :      2.13s CPU      0.37s WALL (       1 calls)
     potinit      :      0.01s CPU      0.01s WALL (       1 calls)
     hinit0       :      0.02s CPU      0.02s WALL (       1 calls)

     Called by electrons:
     c_bands      :     11.15s CPU      1.95s WALL (       4 calls)
     sum_band     :      1.44s CPU      0.26s WALL (       4 calls)
     v_of_rho     :      0.30s CPU      0.05s WALL (       4 calls)
     mix_rho      :      0.03s CPU      0.00s WALL (       4 calls)

     Called by c_bands:
     init_us_2    :      0.54s CPU      0.10s WALL (     234 calls)
     cegterg      :     10.14s CPU      1.78s WALL (     104 calls)

     Called by *egterg:
     cdiaghg      :      0.11s CPU      0.02s WALL (     520 calls)
     h_psi        :     10.72s CPU      1.88s WALL (     572 calls)
     g_psi        :      0.08s CPU      0.01s WALL (     442 calls)

     Called by h_psi:
     h_psi:calbec :      0.21s CPU      0.04s WALL (     572 calls)
     vloc_psi     :      9.32s CPU      1.57s WALL (     572 calls)
     add_vuspsi   :      1.14s CPU      0.25s WALL (     572 calls)

     General routines
     calbec       :      0.21s CPU      0.04s WALL (     572 calls)
     fft          :      0.10s CPU      0.02s WALL (      41 calls)
     ffts         :      0.01s CPU      0.00s WALL (       4 calls)
     fftw         :      9.10s CPU      1.54s WALL (    5064 calls)

     Parallel routines

     PWSCF        :     15.20s CPU      2.71s WALL


   This run was terminated on:  21:25:32  19Mar2023            

=------------------------------------------------------------------------------=
   JOB DONE.
=------------------------------------------------------------------------------=
