
     Program PWSCF v.6.7MaX starts on 19Jan2023 at 21:29:50 

     This program is part of the open-source Quantum ESPRESSO suite
     for quantum simulation of materials; please cite
         "P. Giannozzi et al., J. Phys.:Condens. Matter 21 395502 (2009);
         "P. Giannozzi et al., J. Phys.:Condens. Matter 29 465901 (2017);
          URL http://www.quantum-espresso.org", 
     in publications or presentations arising from this work. More details at
     http://www.quantum-espresso.org/quote

     Parallel version (MPI), running on     1 processors

     MPI processes distributed on     1 nodes
     Waiting for input...
     Reading input from standard input
Warning: card SENT FROM MAIL FOR WINDOWS ignored

     Current dimensions of program PWSCF are:
     Max number of different atomic species (ntypx) = 10
     Max number of k-points (npk) =  40000
     Max angular momentum in pseudopotentials (lmaxx) =  3
     file K.pbe-mt_fhi.UPF: wavefunction(s)  4p 3d 4f renormalized

     Subspace diagonalization in iterative solution of the eigenvalue problem:
     a serial algorithm will be used


     G-vector sticks info
     --------------------
     sticks:   dense  smooth     PW     G-vecs:    dense   smooth      PW
     Sum        1465    1465    411                35337    35337    5425



     bravais-lattice index     =            3
     lattice parameter (alat)  =      10.4000  a.u.
     unit-cell volume          =     562.4320 (a.u.)^3
     number of atoms/cell      =            1
     number of atomic types    =            1
     number of electrons       =         1.00
     number of Kohn-Sham states=            5
     kinetic-energy cutoff     =      60.0000  Ry
     charge density cutoff     =     240.0000  Ry
     scf convergence threshold =      1.0E-06
     mixing beta               =       0.7000
     number of iterations used =            8  plain     mixing
     Exchange-correlation= PBE
                           (   1   4   3   4   0   0   0)

     celldm(1)=  10.400000  celldm(2)=   0.000000  celldm(3)=   0.000000
     celldm(4)=   0.000000  celldm(5)=   0.000000  celldm(6)=   0.000000

     crystal axes: (cart. coord. in units of alat)
               a(1) = (   0.500000   0.500000   0.500000 )  
               a(2) = (  -0.500000   0.500000   0.500000 )  
               a(3) = (  -0.500000  -0.500000   0.500000 )  

     reciprocal axes: (cart. coord. in units 2 pi/alat)
               b(1) = (  1.000000  0.000000  1.000000 )  
               b(2) = ( -1.000000  1.000000  0.000000 )  
               b(3) = (  0.000000 -1.000000  1.000000 )  


     PseudoPot. # 1 for K  read from file:
     ./K.pbe-mt_fhi.UPF
     MD5 check sum: be3a3788e029af498c3454134aaf9ef1
     Pseudo is Norm-conserving + core correction, Zval =  1.0
     Generated using FHI98PP, converted with fhi2upf.x v.5.0.2
     Using radial grid of  509 points,  3 beta functions with: 
                l(1) =   1
                l(2) =   2
                l(3) =   3

     atomic species   valence    mass     pseudopotential
        K              1.00    39.09830     K ( 1.00)

     48 Sym. Ops., with inversion, found



   Cartesian axes

     site n.     atom                  positions (alat units)
         1           K   tau(   1) = (   0.0000000   0.0000000   0.0000000  )

     number of k points=    26  Marzari-Vanderbilt smearing, width (Ry)=  0.0400
                       cart. coord. in units 2pi/alat
        k(    1) = (   0.0000000   0.0000000   0.1250000), wk =   0.0234375
        k(    2) = (   0.0000000  -0.1250000   0.2500000), wk =   0.0937500
        k(    3) = (   0.0000000  -0.2500000   0.3750000), wk =   0.0937500
        k(    4) = (   0.0000000  -0.3750000   0.5000000), wk =   0.0937500
        k(    5) = (  -0.1250000   0.1250000   0.1250000), wk =   0.0312500
        k(    6) = (  -0.1250000  -0.1250000   0.3750000), wk =   0.0937500
        k(    7) = (  -0.1250000  -0.2500000   0.5000000), wk =   0.1875000
        k(    8) = (  -0.1250000   0.6250000  -0.3750000), wk =   0.0937500
        k(    9) = (  -0.2500000   0.2500000   0.1250000), wk =   0.0937500
        k(   10) = (  -0.2500000   0.7500000  -0.3750000), wk =   0.0937500
        k(   11) = (  -0.3750000   0.3750000   0.1250000), wk =   0.0937500
        k(   12) = (  -0.3750000   0.2500000   0.2500000), wk =   0.0937500
        k(   13) = (   0.5000000  -0.5000000   0.1250000), wk =   0.0468750
        k(   14) = (   0.5000000  -0.6250000   0.2500000), wk =   0.1875000
        k(   15) = (   0.3750000  -0.6250000   0.3750000), wk =   0.0312500
        k(   16) = (   0.0000000   0.0000000   0.3750000), wk =   0.0234375
        k(   17) = (   0.0000000  -0.1250000   0.5000000), wk =   0.0937500
        k(   18) = (   0.0000000  -0.2500000   0.6250000), wk =   0.0937500
        k(   19) = (  -0.1250000  -0.1250000   0.6250000), wk =   0.0937500
        k(   20) = (  -0.1250000   0.7500000  -0.2500000), wk =   0.0937500
        k(   21) = (   0.6250000  -0.6250000   0.3750000), wk =   0.0312500
        k(   22) = (   0.5000000  -0.5000000   0.3750000), wk =   0.0468750
        k(   23) = (   0.0000000   0.0000000   0.6250000), wk =   0.0234375
        k(   24) = (   0.0000000  -0.1250000   0.7500000), wk =   0.0937500
        k(   25) = (  -0.1250000   0.8750000  -0.1250000), wk =   0.0312500
        k(   26) = (   0.0000000   0.0000000   0.8750000), wk =   0.0234375

     Dense  grid:    35337 G-vectors     FFT dimensions: (  45,  45,  45)

     Estimated max dynamical RAM per process >      33.71 MB

     Initial potential from superposition of free atoms

     starting charge    0.98381, renormalised to    1.00000
     Starting wfcs are   16 randomized atomic wfcs

     total cpu time spent up to now is        0.9 secs

     Self-consistent Calculation

     iteration #  1     ecut=    60.00 Ry     beta= 0.70
     Davidson diagonalization with overlap
     ethr =  1.00E-02,  avg # of iterations =  7.5

     Threshold (ethr) on eigenvalues was too large:
     Diagonalizing with lowered threshold

     Davidson diagonalization with overlap
     ethr =  5.44E-05,  avg # of iterations = 10.2

     total cpu time spent up to now is        5.8 secs

     total energy              =      -1.02598005 Ry
     estimated scf accuracy    <       0.00063083 Ry

     iteration #  2     ecut=    60.00 Ry     beta= 0.70
     Davidson diagonalization with overlap
     ethr =  6.31E-05,  avg # of iterations =  1.0

     total cpu time spent up to now is        6.6 secs

     total energy              =      -1.02601169 Ry
     estimated scf accuracy    <       0.00006386 Ry

     iteration #  3     ecut=    60.00 Ry     beta= 0.70
     Davidson diagonalization with overlap
     c_bands:  1 eigenvalues not converged
     ethr =  6.39E-06,  avg # of iterations =  5.5

     total cpu time spent up to now is        8.0 secs

     End of self-consistent calculation

          k = 0.0000 0.0000 0.1250 (  4393 PWs)   bands (ev):

    -2.4694   3.6133   3.6138   3.7800   4.2217

          k = 0.0000-0.1250 0.2500 (  4405 PWs)   bands (ev):

    -2.1489   2.9110   3.2779   3.9612   3.9850

          k = 0.0000-0.2500 0.3750 (  4413 PWs)   bands (ev):

    -1.5212   1.7317   2.9182   3.9407   4.3869

          k = 0.0000-0.3750 0.5000 (  4411 PWs)   bands (ev):

    -0.6185   0.5058   2.7113   3.8255   4.8260

          k =-0.1250 0.1250 0.1250 (  4390 PWs)   bands (ev):

    -2.3086   3.2831   3.2832   3.8635   4.4065

          k =-0.1250-0.1250 0.3750 (  4411 PWs)   bands (ev):

    -1.6763   2.2763   2.7154   3.8211   4.1856

          k =-0.1250-0.2500 0.5000 (  4423 PWs)   bands (ev):

    -0.9138   1.2412   2.2810   3.7949   4.3315

          k =-0.1250 0.6250-0.3750 (  4420 PWs)   bands (ev):

     0.0190   0.1706   2.1468   3.6830   4.7186

          k =-0.2500 0.2500 0.1250 (  4394 PWs)   bands (ev):

    -1.8327   2.3226   2.8321   4.0225   4.5315

          k =-0.2500 0.7500-0.3750 (  4417 PWs)   bands (ev):

    -0.0584   0.8378   1.3324   4.0113   4.1681

          k =-0.3750 0.3750 0.1250 (  4413 PWs)   bands (ev):

    -1.0634   1.1354   2.5241   3.9460   4.6750

          k =-0.3750 0.2500 0.2500 (  4407 PWs)   bands (ev):

    -1.2146   1.7301   2.0968   3.6734   4.5358

          k = 0.5000-0.5000 0.1250 (  4416 PWs)   bands (ev):

    -0.0998   0.0122   2.4170   3.8086   4.8485

          k = 0.5000-0.6250 0.2500 (  4409 PWs)   bands (ev):

    -0.3336   0.7449   1.7511   3.3187   4.7006

          k = 0.3750-0.6250 0.3750 (  4421 PWs)   bands (ev):

     0.4897   0.4900   0.9831   3.0961   4.8254

          k = 0.0000 0.0000 0.3750 (  4405 PWs)   bands (ev):

    -1.8327   2.9576   3.0483   3.0485   4.1651

          k = 0.0000-0.1250 0.5000 (  4413 PWs)   bands (ev):

    -1.2150   1.9092   2.7753   3.0756   4.3800

          k = 0.0000-0.2500 0.6250 (  4412 PWs)   bands (ev):

    -0.3335   0.7654   2.6075   2.9386   4.3337

          k =-0.1250-0.1250 0.6250 (  4422 PWs)   bands (ev):

    -0.4766   1.3946   2.0239   3.2569   3.9202

          k =-0.1250 0.7500-0.2500 (  4417 PWs)   bands (ev):

     0.3689   0.5974   1.7078   3.3531   3.9636

          k = 0.6250-0.6250 0.3750 (  4405 PWs)   bands (ev):

    -0.4762   1.3940   1.3943   2.7798   4.9294

          k = 0.5000-0.5000 0.3750 (  4406 PWs)   bands (ev):

     0.3721   0.5667   1.2808   2.4110   5.0108

          k = 0.0000 0.0000 0.6250 (  4409 PWs)   bands (ev):

    -0.6217   1.9118   2.5916   2.5917   3.4777

          k = 0.0000-0.1250 0.7500 (  4412 PWs)   bands (ev):

     0.2035   1.1963   2.3777   2.4739   3.3871

          k =-0.1250 0.8750-0.1250 (  4412 PWs)   bands (ev):

     0.9153   0.9159   1.7625   3.0001   3.0002

          k = 0.0000 0.0000 0.8750 (  4444 PWs)   bands (ev):

     0.8906   1.3628   2.3859   2.3866   2.5436

     the Fermi energy is    -0.6476 ev

!    total energy              =      -1.02601536 Ry
     estimated scf accuracy    <       0.00000004 Ry
     smearing contrib. (-TS)   =      -0.00119821 Ry
     internal energy E=F+TS    =      -1.02481715 Ry

     The total energy is F=E-TS. E is the sum of the following terms:
     one-electron contribution =       0.23313568 Ry
     hartree contribution      =       0.00137553 Ry
     xc contribution           =      -0.90940206 Ry
     ewald contribution        =      -0.34992629 Ry

     convergence has been achieved in   3 iterations

     Writing output data file ./K.save/

     init_run     :      4.91s CPU      0.89s WALL (       1 calls)
     electrons    :     42.47s CPU      7.06s WALL (       1 calls)

     Called by init_run:
     wfcinit      :      4.84s CPU      0.82s WALL (       1 calls)
     potinit      :      0.02s CPU      0.03s WALL (       1 calls)
     hinit0       :      0.02s CPU      0.03s WALL (       1 calls)

     Called by electrons:
     c_bands      :     39.79s CPU      6.39s WALL (       4 calls)
     sum_band     :      2.61s CPU      0.60s WALL (       4 calls)
     v_of_rho     :      0.08s CPU      0.08s WALL (       4 calls)
     mix_rho      :      0.01s CPU      0.01s WALL (       4 calls)

     Called by c_bands:
     init_us_2    :      1.42s CPU      0.24s WALL (     234 calls)
     cegterg      :     36.83s CPU      5.93s WALL (     104 calls)

     Called by *egterg:
     cdiaghg      :      0.20s CPU      0.03s WALL (     709 calls)
     h_psi        :     38.24s CPU      6.24s WALL (     761 calls)
     g_psi        :      0.41s CPU      0.05s WALL (     631 calls)

     Called by h_psi:
     h_psi:calbec :      0.54s CPU      0.09s WALL (     761 calls)
     vloc_psi     :     36.81s CPU      5.99s WALL (     761 calls)
     add_vuspsi   :      0.72s CPU      0.13s WALL (     761 calls)

     General routines
     calbec       :      0.53s CPU      0.09s WALL (     761 calls)
     fft          :      0.03s CPU      0.03s WALL (      41 calls)
     ffts         :      0.00s CPU      0.00s WALL (       4 calls)
     fftw         :     34.30s CPU      5.71s WALL (    6188 calls)

     Parallel routines

     PWSCF        :     47.41s CPU      7.98s WALL


   This run was terminated on:  21:29:58  19Jan2023            

=------------------------------------------------------------------------------=
   JOB DONE.
=------------------------------------------------------------------------------=
