
     Program PWSCF v.6.7MaX starts on 19Mar2023 at 21:25:21 

     This program is part of the open-source Quantum ESPRESSO suite
     for quantum simulation of materials; please cite
         "P. Giannozzi et al., J. Phys.:Condens. Matter 21 395502 (2009);
         "P. Giannozzi et al., J. Phys.:Condens. Matter 29 465901 (2017);
          URL http://www.quantum-espresso.org", 
     in publications or presentations arising from this work. More details at
     http://www.quantum-espresso.org/quote

     Parallel version (MPI), running on     1 processors

     MPI processes distributed on     1 nodes
     Waiting for input...
     Reading input from standard input
Warning: card SENT FROM MAIL FOR WINDOWS ignored

     Current dimensions of program PWSCF are:
     Max number of different atomic species (ntypx) = 10
     Max number of k-points (npk) =  40000
     Max angular momentum in pseudopotentials (lmaxx) =  3
     file K.pbe-mt_fhi.UPF: wavefunction(s)  4p 3d 4f renormalized

     Subspace diagonalization in iterative solution of the eigenvalue problem:
     a serial algorithm will be used


     G-vector sticks info
     --------------------
     sticks:   dense  smooth     PW     G-vecs:    dense   smooth      PW
     Sum         861     861    261                15995    15995    2659



     bravais-lattice index     =            3
     lattice parameter (alat)  =       8.0000  a.u.
     unit-cell volume          =     256.0000 (a.u.)^3
     number of atoms/cell      =            1
     number of atomic types    =            1
     number of electrons       =         1.00
     number of Kohn-Sham states=            5
     kinetic-energy cutoff     =      60.0000  Ry
     charge density cutoff     =     240.0000  Ry
     scf convergence threshold =      1.0E-06
     mixing beta               =       0.7000
     number of iterations used =            8  plain     mixing
     Exchange-correlation= PBE
                           (   1   4   3   4   0   0   0)

     celldm(1)=   8.000000  celldm(2)=   0.000000  celldm(3)=   0.000000
     celldm(4)=   0.000000  celldm(5)=   0.000000  celldm(6)=   0.000000

     crystal axes: (cart. coord. in units of alat)
               a(1) = (   0.500000   0.500000   0.500000 )  
               a(2) = (  -0.500000   0.500000   0.500000 )  
               a(3) = (  -0.500000  -0.500000   0.500000 )  

     reciprocal axes: (cart. coord. in units 2 pi/alat)
               b(1) = (  1.000000  0.000000  1.000000 )  
               b(2) = ( -1.000000  1.000000  0.000000 )  
               b(3) = (  0.000000 -1.000000  1.000000 )  


     PseudoPot. # 1 for K  read from file:
     ./K.pbe-mt_fhi.UPF
     MD5 check sum: be3a3788e029af498c3454134aaf9ef1
     Pseudo is Norm-conserving + core correction, Zval =  1.0
     Generated using FHI98PP, converted with fhi2upf.x v.5.0.2
     Using radial grid of  509 points,  3 beta functions with: 
                l(1) =   1
                l(2) =   2
                l(3) =   3

     atomic species   valence    mass     pseudopotential
        K              1.00    39.09830     K ( 1.00)

     48 Sym. Ops., with inversion, found



   Cartesian axes

     site n.     atom                  positions (alat units)
         1           K   tau(   1) = (   0.0000000   0.0000000   0.0000000  )

     number of k points=    26  Marzari-Vanderbilt smearing, width (Ry)=  0.0400
                       cart. coord. in units 2pi/alat
        k(    1) = (   0.0000000   0.0000000   0.1250000), wk =   0.0234375
        k(    2) = (   0.0000000  -0.1250000   0.2500000), wk =   0.0937500
        k(    3) = (   0.0000000  -0.2500000   0.3750000), wk =   0.0937500
        k(    4) = (   0.0000000  -0.3750000   0.5000000), wk =   0.0937500
        k(    5) = (  -0.1250000   0.1250000   0.1250000), wk =   0.0312500
        k(    6) = (  -0.1250000  -0.1250000   0.3750000), wk =   0.0937500
        k(    7) = (  -0.1250000  -0.2500000   0.5000000), wk =   0.1875000
        k(    8) = (  -0.1250000   0.6250000  -0.3750000), wk =   0.0937500
        k(    9) = (  -0.2500000   0.2500000   0.1250000), wk =   0.0937500
        k(   10) = (  -0.2500000   0.7500000  -0.3750000), wk =   0.0937500
        k(   11) = (  -0.3750000   0.3750000   0.1250000), wk =   0.0937500
        k(   12) = (  -0.3750000   0.2500000   0.2500000), wk =   0.0937500
        k(   13) = (   0.5000000  -0.5000000   0.1250000), wk =   0.0468750
        k(   14) = (   0.5000000  -0.6250000   0.2500000), wk =   0.1875000
        k(   15) = (   0.3750000  -0.6250000   0.3750000), wk =   0.0312500
        k(   16) = (   0.0000000   0.0000000   0.3750000), wk =   0.0234375
        k(   17) = (   0.0000000  -0.1250000   0.5000000), wk =   0.0937500
        k(   18) = (   0.0000000  -0.2500000   0.6250000), wk =   0.0937500
        k(   19) = (  -0.1250000  -0.1250000   0.6250000), wk =   0.0937500
        k(   20) = (  -0.1250000   0.7500000  -0.2500000), wk =   0.0937500
        k(   21) = (   0.6250000  -0.6250000   0.3750000), wk =   0.0312500
        k(   22) = (   0.5000000  -0.5000000   0.3750000), wk =   0.0468750
        k(   23) = (   0.0000000   0.0000000   0.6250000), wk =   0.0234375
        k(   24) = (   0.0000000  -0.1250000   0.7500000), wk =   0.0937500
        k(   25) = (  -0.1250000   0.8750000  -0.1250000), wk =   0.0312500
        k(   26) = (   0.0000000   0.0000000   0.8750000), wk =   0.0234375

     Dense  grid:    15995 G-vectors     FFT dimensions: (  36,  36,  36)

     Estimated max dynamical RAM per process >      15.94 MB

     Initial potential from superposition of free atoms

     starting charge    0.98381, renormalised to    1.00000
     Starting wfcs are   16 randomized atomic wfcs

     total cpu time spent up to now is        0.5 secs

     Self-consistent Calculation

     iteration #  1     ecut=    60.00 Ry     beta= 0.70
     Davidson diagonalization with overlap
     ethr =  1.00E-02,  avg # of iterations =  5.6

     Threshold (ethr) on eigenvalues was too large:
     Diagonalizing with lowered threshold

     Davidson diagonalization with overlap
     c_bands:  2 eigenvalues not converged
     ethr =  1.25E-04,  avg # of iterations =  5.6

     total cpu time spent up to now is        2.0 secs

     total energy              =      -1.00141062 Ry
     estimated scf accuracy    <       0.00128195 Ry

     iteration #  2     ecut=    60.00 Ry     beta= 0.70
     Davidson diagonalization with overlap
     ethr =  1.28E-04,  avg # of iterations =  1.2

     total cpu time spent up to now is        2.4 secs

     total energy              =      -1.00144086 Ry
     estimated scf accuracy    <       0.00011830 Ry

     iteration #  3     ecut=    60.00 Ry     beta= 0.70
     Davidson diagonalization with overlap
     ethr =  1.18E-05,  avg # of iterations =  4.2

     total cpu time spent up to now is        2.9 secs

     End of self-consistent calculation

          k = 0.0000 0.0000 0.1250 (  2025 PWs)   bands (ev):

    -1.5416   6.2794   6.2795   6.4754   7.3080

          k = 0.0000-0.1250 0.2500 (  2010 PWs)   bands (ev):

    -0.9837   5.4873   5.8030   6.9291   6.9954

          k = 0.0000-0.2500 0.3750 (  2023 PWs)   bands (ev):

     0.0538   4.1508   5.2546   7.1514   8.0650

          k = 0.0000-0.3750 0.5000 (  2011 PWs)   bands (ev):

     1.3853   2.8305   4.9357   7.3316   8.3717

          k =-0.1250 0.1250 0.1250 (  2015 PWs)   bands (ev):

    -1.2593   5.8318   5.8323   6.8661   7.5748

          k =-0.1250-0.1250 0.3750 (  2018 PWs)   bands (ev):

    -0.1946   4.6380   5.3147   6.7480   7.6676

          k =-0.1250-0.2500 0.5000 (  2010 PWs)   bands (ev):

     0.9820   3.5381   4.8274   6.9985   8.2322

          k =-0.1250 0.6250-0.3750 (  2009 PWs)   bands (ev):

     2.2472   2.3758   4.6349   7.0365   8.2983

          k =-0.2500 0.2500 0.1250 (  2012 PWs)   bands (ev):

    -0.4487   4.7498   5.1963   7.6123   7.7061

          k =-0.2500 0.7500-0.3750 (  2006 PWs)   bands (ev):

     2.1391   3.0347   4.0171   7.4615   7.9389

          k =-0.3750 0.3750 0.1250 (  2005 PWs)   bands (ev):

     0.7651   3.5016   4.7589   7.8302   8.1795

          k =-0.3750 0.2500 0.2500 (  2015 PWs)   bands (ev):

     0.5465   4.0043   4.4623   7.7723   8.2901

          k = 0.5000-0.5000 0.1250 (  2020 PWs)   bands (ev):

     2.0048   2.3279   4.6070   7.8172   8.4606

          k = 0.5000-0.6250 0.2500 (  2015 PWs)   bands (ev):

     1.8142   3.0382   4.0828   7.9247   8.3861

          k = 0.3750-0.6250 0.3750 (  2016 PWs)   bands (ev):

     2.7809   2.7813   3.4147   8.2725   8.2726

          k = 0.0000 0.0000 0.3750 (  2018 PWs)   bands (ev):

    -0.4532   5.3573   5.8382   5.8383   7.1015

          k = 0.0000-0.1250 0.5000 (  2017 PWs)   bands (ev):

     0.5221   4.1473   5.5738   6.0632   7.9563

          k = 0.0000-0.2500 0.6250 (  2011 PWs)   bands (ev):

     1.7541   2.9854   5.3442   6.0774   8.0928

          k =-0.1250-0.1250 0.6250 (  2006 PWs)   bands (ev):

     1.5519   3.4368   5.0957   6.4568   7.6289

          k =-0.1250 0.7500-0.2500 (  2007 PWs)   bands (ev):

     2.5216   2.7187   4.6904   6.6926   7.7565

          k = 0.6250-0.6250 0.3750 (  2013 PWs)   bands (ev):

     1.6353   3.6435   3.6436   8.3715   8.3718

          k = 0.5000-0.5000 0.3750 (  2010 PWs)   bands (ev):

     2.6997   2.8248   3.5299   7.9977   8.4987

          k = 0.0000 0.0000 0.6250 (  2014 PWs)   bands (ev):

     1.3358   3.7060   5.9390   5.9390   7.3230

          k = 0.0000-0.1250 0.7500 (  1994 PWs)   bands (ev):

     2.2423   3.0500   5.8293   6.0584   7.4024

          k =-0.1250 0.8750-0.1250 (  1974 PWs)   bands (ev):

     2.7267   2.7268   5.5164   7.0664   7.0668

          k = 0.0000 0.0000 0.8750 (  1970 PWs)   bands (ev):

     2.6066   2.8376   6.7425   6.7438   6.8500

     the Fermi energy is     1.3443 ev

!    total energy              =      -1.00144826 Ry
     estimated scf accuracy    <       0.00000002 Ry
     smearing contrib. (-TS)   =      -0.00037228 Ry
     internal energy E=F+TS    =      -1.00107598 Ry

     The total energy is F=E-TS. E is the sum of the following terms:
     one-electron contribution =       0.46509955 Ry
     hartree contribution      =       0.00432484 Ry
     xc contribution           =      -1.01559619 Ry
     ewald contribution        =      -0.45490418 Ry

     convergence has been achieved in   3 iterations

     Writing output data file ./K.save/

     init_run     :      2.21s CPU      0.44s WALL (       1 calls)
     electrons    :     13.17s CPU      2.43s WALL (       1 calls)

     Called by init_run:
     wfcinit      :      2.17s CPU      0.39s WALL (       1 calls)
     potinit      :      0.01s CPU      0.01s WALL (       1 calls)
     hinit0       :      0.02s CPU      0.03s WALL (       1 calls)

     Called by electrons:
     c_bands      :     11.45s CPU      2.11s WALL (       4 calls)
     sum_band     :      1.39s CPU      0.25s WALL (       4 calls)
     v_of_rho     :      0.24s CPU      0.05s WALL (       4 calls)
     mix_rho      :      0.06s CPU      0.01s WALL (       4 calls)

     Called by c_bands:
     init_us_2    :      0.52s CPU      0.09s WALL (     234 calls)
     cegterg      :     10.57s CPU      1.95s WALL (     104 calls)

     Called by *egterg:
     cdiaghg      :      0.12s CPU      0.02s WALL (     509 calls)
     h_psi        :     11.09s CPU      2.02s WALL (     561 calls)
     g_psi        :      0.08s CPU      0.01s WALL (     431 calls)

     Called by h_psi:
     h_psi:calbec :      0.79s CPU      0.18s WALL (     561 calls)
     vloc_psi     :      9.22s CPU      1.61s WALL (     561 calls)
     add_vuspsi   :      1.03s CPU      0.22s WALL (     561 calls)

     General routines
     calbec       :      0.79s CPU      0.18s WALL (     561 calls)
     fft          :      0.10s CPU      0.02s WALL (      41 calls)
     ffts         :      0.02s CPU      0.00s WALL (       4 calls)
     fftw         :      8.90s CPU      1.57s WALL (    5090 calls)

     Parallel routines

     PWSCF        :     15.51s CPU      2.92s WALL


   This run was terminated on:  21:25:24  19Mar2023            

=------------------------------------------------------------------------------=
   JOB DONE.
=------------------------------------------------------------------------------=
