BEGIN_CFG
 Size
    2
 Supercell
         4.956852      0.000000      0.000000
         0.000000      4.956852      0.000000
         0.000000      0.000000      4.956852
 AtomData:  id type       cartes_x      cartes_y      cartes_z           fx          fy          fz
             1    0       4.957206      0.157510      4.182103     0.003793   -0.334872    0.391637
             2    0       2.478072      2.320916      3.253175    -0.003793    0.334872   -0.391637
 Energy
        -27.655086244225
 PlusStress:  xx          yy          zz          yz          xz          xy
         1.62312     1.29867    -1.24081    -0.30809     0.00350    -0.00423
 Feature   MV_grade	2.110597
END_CFG

BEGIN_CFG
 Size
    2
 Supercell
         4.956852      0.000000      0.000000
         0.000000      4.956852      0.000000
         0.000000      0.000000      4.956852
 AtomData:  id type       cartes_x      cartes_y      cartes_z           fx          fy          fz
             1    0       4.822730      0.515778      0.458445     0.631687   -0.785310   -0.685073
             2    0       2.612547      1.962648      2.019981    -0.631687    0.785310    0.685073
 Energy
        -27.566859422637
 PlusStress:  xx          yy          zz          yz          xz          xy
         1.57335    -0.57147    -0.04515     1.15937    -0.80982    -0.49628
 Feature   MV_grade	7.397584
END_CFG

BEGIN_CFG
 Size
    2
 Supercell
         5.365664      0.000000      0.000000
         0.000000      5.365664      0.000000
         0.000000      0.000000      5.365664
 AtomData:  id type       cartes_x      cartes_y      cartes_z           fx          fy          fz
             1    0       4.562356      5.117813      4.959839     0.498133    0.698632    0.810461
             2    0       3.486140      2.930683      3.088658    -0.498133   -0.698632   -0.810461
 Energy
        -27.470454649431
 PlusStress:  xx          yy          zz          yz          xz          xy
         0.53510     1.52849     0.87216     0.61859     0.87061     0.75048
 Feature   MV_grade	12.633071
END_CFG

BEGIN_CFG
 Size
    2
 Supercell
         5.263461      0.000000      0.000000
         0.000000      5.263461      0.000000
         0.000000      0.000000      5.263461
 AtomData:  id type       cartes_x      cartes_y      cartes_z           fx          fy          fz
             1    0       0.376921      4.224440     -0.116349    -0.676002    0.271493    0.470003
             2    0       2.254809      3.670752      2.748080     0.676002   -0.271493   -0.470003
 Energy
        -27.389105288120
 PlusStress:  xx          yy          zz          yz          xz          xy
         1.02222     0.14834     1.80991     0.25679    -0.71372    -0.36935
 Feature   MV_grade	10.018541
END_CFG

BEGIN_CFG
 Size
    2
 Supercell
         4.854649      0.000000      0.000000
         0.000000      4.854649      0.000000
         0.000000      0.000000      4.854649
 AtomData:  id type       cartes_x      cartes_y      cartes_z           fx          fy          fz
             1    0       0.356768      4.598013      4.464659    -0.706418    0.604209    0.765348
             2    0       2.070557      2.683960      2.817313     0.706418   -0.604209   -0.765348
 Energy
        -27.705928788131
 PlusStress:  xx          yy          zz          yz          xz          xy
        -0.44964     0.53253    -0.81197     0.96098    -0.68710    -1.09302
 Feature   MV_grade	9.292393
END_CFG

BEGIN_CFG
 Size
    2
 Supercell
         5.263461      0.000000      0.000000
         0.000000      5.263461      0.000000
         0.000000      0.000000      5.263461
 AtomData:  id type       cartes_x      cartes_y      cartes_z           fx          fy          fz
             1    0       0.346003      4.135935     -0.023899    -0.536976    0.157807    0.077892
             2    0       2.285728      3.759256      2.655629     0.536976   -0.157807   -0.077892
 Energy
        -27.442984494972
 PlusStress:  xx          yy          zz          yz          xz          xy
         0.73672     0.05880     1.34321     0.02902    -0.12543    -0.20007
 Feature   MV_grade	2.790964
END_CFG

BEGIN_CFG
 Size
    2
 Supercell
         4.956852      0.000000      0.000000
         0.000000      4.956852      0.000000
         0.000000      0.000000      4.956852
 AtomData:  id type       cartes_x      cartes_y      cartes_z           fx          fy          fz
             1    0       4.619879      4.669832      4.521295     0.710936    0.800451    0.783246
             2    0       2.815399      2.765446      2.913983    -0.710936   -0.800451   -0.783246
 Energy
        -27.654456658702
 PlusStress:  xx          yy          zz          yz          xz          xy
         0.49185     0.67934    -0.02013     0.86372     1.23266     1.12599
 Feature   MV_grade	10.877290
END_CFG

BEGIN_CFG
 Size
    2
 Supercell
         4.854649      0.000000      0.000000
         0.000000      4.854649      0.000000
         0.000000      0.000000      4.854649
 AtomData:  id type       cartes_x      cartes_y      cartes_z           fx          fy          fz
             1    0       4.787036      0.858135      4.631367     0.502739   -0.516545    0.765123
             2    0       2.494937      1.569189      2.650605    -0.502739    0.516545   -0.765123
 Energy
        -27.447255014366
 PlusStress:  xx          yy          zz          yz          xz          xy
         3.39765    -4.55926     2.34230    -0.54378     0.82875    -0.36119
 Feature   MV_grade	10.408924
END_CFG

BEGIN_CFG
 Size
    2
 Supercell
         5.161258      0.000000      0.000000
         0.000000      5.161258      0.000000
         0.000000      0.000000      5.161258
 AtomData:  id type       cartes_x      cartes_y      cartes_z           fx          fy          fz
             1    0       5.036907      0.568100      0.510983     0.535188   -0.653578   -0.739403
             2    0       2.704980      2.012529      2.069646    -0.535188    0.653578    0.739403
 Energy
        -27.539021182827
 PlusStress:  xx          yy          zz          yz          xz          xy
         1.03081     0.14783    -0.06712     1.24961    -0.34631    -0.39077
 Feature   MV_grade	2.303675
END_CFG

BEGIN_CFG
 Size
    2
 Supercell
         5.161258      0.000000      0.000000
         0.000000      5.161258      0.000000
         0.000000      0.000000      5.161258
 AtomData:  id type       cartes_x      cartes_y      cartes_z           fx          fy          fz
             1    0       4.651371      4.867307      4.756699     0.672828    0.708533    0.825092
             2    0       3.090516      2.874580      2.985188    -0.672828   -0.708533   -0.825092
 Energy
        -27.595687418216
 PlusStress:  xx          yy          zz          yz          xz          xy
         0.70939     1.17504     0.68543     0.61916     1.31346     1.21772
 Feature   MV_grade	10.516779
END_CFG

BEGIN_CFG
 Size
    2
 Supercell
         4.854649      0.000000      0.000000
         0.000000      4.854649      0.000000
         0.000000      0.000000      4.854649
 AtomData:  id type       cartes_x      cartes_y      cartes_z           fx          fy          fz
             1    0       0.340605      4.630387      4.488487    -0.545242    0.394960    0.580846
             2    0       2.086719      2.651586      2.793486     0.545242   -0.394960   -0.580846
 Energy
        -27.780787678743
 PlusStress:  xx          yy          zz          yz          xz          xy
        -0.39002     0.61055    -0.60914     0.73765    -0.46617    -0.79394
 Feature   MV_grade	2.270781
END_CFG

BEGIN_CFG
 Size
    2
 Supercell
         4.854649      0.000000      0.000000
         0.000000      4.854649      0.000000
         0.000000      0.000000      4.854649
 AtomData:  id type       cartes_x      cartes_y      cartes_z           fx          fy          fz
             1    0       4.824198      0.744491      4.628312     0.160804   -0.516160    0.548617
             2    0       2.457775      1.682833      2.653660    -0.160804    0.516160   -0.548617
 Energy
        -27.591538678158
 PlusStress:  xx          yy          zz          yz          xz          xy
         2.54890    -3.84459     1.53194    -0.49129     0.24262    -0.13161
 Feature   MV_grade	4.012983
END_CFG

BEGIN_CFG
 Size
    2
 Supercell
         4.854649      0.000000      0.000000
         0.000000      4.854649      0.000000
         0.000000      0.000000      4.854649
 AtomData:  id type       cartes_x      cartes_y      cartes_z           fx          fy          fz
             1    0       4.221074      4.820928     -0.024560     0.462976    0.062459    0.042458
             2    0       3.060899      2.461045      2.451884    -0.462976   -0.062459   -0.042458
 Energy
        -27.790751220338
 PlusStress:  xx          yy          zz          yz          xz          xy
        -3.09436     1.48621     1.49976     0.01593     0.02580     0.04790
 Feature   MV_grade	3.152906
END_CFG

BEGIN_CFG
 Size
    2
 Supercell
         4.956852      0.000000      0.000000
         0.000000      4.956852      0.000000
         0.000000      0.000000      4.956852
 AtomData:  id type       cartes_x      cartes_y      cartes_z           fx          fy          fz
             1    0       4.973040      1.038096      4.952306    -0.024660   -0.180915    0.014507
             2    0       2.462238      1.440329      2.482972     0.024660    0.180915   -0.014507
 Energy
        -27.559015875461
 PlusStress:  xx          yy          zz          yz          xz          xy
         1.93396    -1.85892     1.93496    -0.00585    -0.00247     0.00994
 Feature   MV_grade	3.727804
END_CFG

BEGIN_CFG
 Size
    2
 Supercell
         5.263461      0.000000      0.000000
         0.000000      5.263461      0.000000
         0.000000      0.000000      5.263461
 AtomData:  id type       cartes_x      cartes_y      cartes_z           fx          fy          fz
             1    0       5.236946      1.072622      5.078051     0.057661   -0.189638    0.235526
             2    0       2.658246      1.559108      2.817141    -0.057661    0.189638   -0.235526
 Energy
        -27.582722749535
 PlusStress:  xx          yy          zz          yz          xz          xy
         0.55875     0.09179     0.50400    -0.11401     0.06989    -0.02791
 Feature   MV_grade	2.395568
END_CFG

BEGIN_CFG
 Size
    2
 Supercell
         5.263461      0.000000      0.000000
         0.000000      5.263461      0.000000
         0.000000      0.000000      5.263461
 AtomData:  id type       cartes_x      cartes_y      cartes_z           fx          fy          fz
             1    0       5.067813      1.011112      5.007685     0.515449   -0.308209    0.549312
             2    0       2.827379      1.620618      2.887506    -0.515449    0.308209   -0.549312
 Energy
        -27.473350073744
 PlusStress:  xx          yy          zz          yz          xz          xy
         1.32718     0.19114     1.18210    -0.34066     0.79435    -0.31966
 Feature   MV_grade	2.621910
END_CFG

BEGIN_CFG
 Size
    2
 Supercell
         4.956852      0.000000      0.000000
         0.000000      4.956852      0.000000
         0.000000      0.000000      4.956852
 AtomData:  id type       cartes_x      cartes_y      cartes_z           fx          fy          fz
             1    0       4.849011      0.968910      4.811849     0.506787   -0.321592    0.562335
             2    0       2.586267      1.509516      2.623429    -0.506787    0.321592   -0.562335
 Energy
        -27.479879277520
 PlusStress:  xx          yy          zz          yz          xz          xy
         2.46118    -1.78204     2.28162    -0.30482     0.75671    -0.27485
 Feature   MV_grade	2.444334
END_CFG

