BEGIN_CFG
 Size
    2
 Supercell
         5.263461      0.000000      0.000000
         0.000000      5.263461      0.000000
         0.000000      0.000000      5.263461
 AtomData:  id type       cartes_x      cartes_y      cartes_z           fx          fy          fz
             1    0       5.072888      0.996205      4.999695     0.496934   -0.314330    0.541849
             2    0       2.822304      1.635526      2.895497    -0.496934    0.314330   -0.541849
 Energy
        -27.481867394732
 PlusStress:  xx          yy          zz          yz          xz          xy
         1.28852     0.20341     1.11554    -0.35065     0.75042    -0.32158
 Feature   MV_grade	2.374380
END_CFG

BEGIN_CFG
 Size
    2
 Supercell
         5.263461      0.000000      0.000000
         0.000000      5.263461      0.000000
         0.000000      0.000000      5.263461
 AtomData:  id type       cartes_x      cartes_y      cartes_z           fx          fy          fz
             1    0       5.071057      1.000811      5.001620     0.505373   -0.313399    0.546259
             2    0       2.824135      1.630919      2.893572    -0.505373    0.313399   -0.546259
 Energy
        -27.478331650716
 PlusStress:  xx          yy          zz          yz          xz          xy
         1.30609     0.20036     1.14136    -0.34923     0.76854    -0.32310
 Feature   MV_grade	2.560925
END_CFG

BEGIN_CFG
 Size
    2
 Supercell
         5.263461      0.000000      0.000000
         0.000000      5.263461      0.000000
         0.000000      0.000000      5.263461
 AtomData:  id type       cartes_x      cartes_y      cartes_z           fx          fy          fz
             1    0       5.068943      1.005783      5.004259     0.510667   -0.311057    0.548239
             2    0       2.826249      1.625948      2.890933    -0.510667    0.311057   -0.548239
 Energy
        -27.475702087900
 PlusStress:  xx          yy          zz          yz          xz          xy
         1.31790     0.19600     1.16171    -0.34545     0.78171    -0.32178
 Feature   MV_grade	2.707683
END_CFG

BEGIN_CFG
 Size
    2
 Supercell
         5.263461      0.000000      0.000000
         0.000000      5.263461      0.000000
         0.000000      0.000000      5.263461
 AtomData:  id type       cartes_x      cartes_y      cartes_z           fx          fy          fz
             1    0       5.067813      1.011112      5.007685     0.515449   -0.308209    0.549312
             2    0       2.827379      1.620618      2.887506    -0.515449    0.308209   -0.549312
 Energy
        -27.473350073744
 PlusStress:  xx          yy          zz          yz          xz          xy
         1.32718     0.19114     1.18210    -0.34066     0.79435    -0.31966
 Feature   MV_grade	2.621910
END_CFG

BEGIN_CFG
 Size
    2
 Supercell
         5.263461      0.000000      0.000000
         0.000000      5.263461      0.000000
         0.000000      0.000000      5.263461
 AtomData:  id type       cartes_x      cartes_y      cartes_z           fx          fy          fz
             1    0       5.067065      1.015794      5.010623     0.515519   -0.303821    0.546450
             2    0       2.828126      1.615936      2.884569    -0.515519    0.303821   -0.546450
 Energy
        -27.472677429587
 PlusStress:  xx          yy          zz          yz          xz          xy
         1.32601     0.18518     1.19272    -0.33306     0.79868    -0.31421
 Feature   MV_grade	2.519020
END_CFG

BEGIN_CFG
 Size
    2
 Supercell
         5.263461      0.000000      0.000000
         0.000000      5.263461      0.000000
         0.000000      0.000000      5.263461
 AtomData:  id type       cartes_x      cartes_y      cartes_z           fx          fy          fz
             1    0       5.066654      1.020649      5.012876     0.514854   -0.299767    0.543528
             2    0       2.828538      1.611082      2.882315    -0.514854    0.299767   -0.543528
 Energy
        -27.472283628511
 PlusStress:  xx          yy          zz          yz          xz          xy
         1.32392     0.17990     1.20019    -0.32619     0.80103    -0.30899
 Feature   MV_grade	2.469938
END_CFG

BEGIN_CFG
 Size
    2
 Supercell
         5.263461      0.000000      0.000000
         0.000000      5.263461      0.000000
         0.000000      0.000000      5.263461
 AtomData:  id type       cartes_x      cartes_y      cartes_z           fx          fy          fz
             1    0       5.067327      1.025847      5.014534     0.514700   -0.295706    0.541633
             2    0       2.827865      1.605884      2.880658    -0.514700    0.295706   -0.541633
 Energy
        -27.471414243461
 PlusStress:  xx          yy          zz          yz          xz          xy
         1.32534     0.17459     1.20854    -0.31980     0.80443    -0.30390
 Feature   MV_grade	2.367730
END_CFG

BEGIN_CFG
 Size
    2
 Supercell
         5.263461      0.000000      0.000000
         0.000000      5.263461      0.000000
         0.000000      0.000000      5.263461
 AtomData:  id type       cartes_x      cartes_y      cartes_z           fx          fy          fz
             1    0       5.067907      1.030693      5.016652     0.512736   -0.290939    0.538985
             2    0       2.827285      1.601037      2.878540    -0.512736    0.290939   -0.538985
 Energy
        -27.470847657613
 PlusStress:  xx          yy          zz          yz          xz          xy
         1.32588     0.16876     1.21249    -0.31263     0.80474    -0.29741
 Feature   MV_grade	2.198220
END_CFG

BEGIN_CFG
 Size
    2
 Supercell
         5.263461      0.000000      0.000000
         0.000000      5.263461      0.000000
         0.000000      0.000000      5.263461
 AtomData:  id type       cartes_x      cartes_y      cartes_z           fx          fy          fz
             1    0       5.223215      1.076759      5.073233     0.090327   -0.188005    0.251536
             2    0       2.671977      1.554972      2.821959    -0.090327    0.188005   -0.251536
 Energy
        -27.576295231764
 PlusStress:  xx          yy          zz          yz          xz          xy
         0.59426     0.08952     0.53042    -0.11977     0.11141    -0.04301
 Feature   MV_grade	2.192168
END_CFG

BEGIN_CFG
 Size
    2
 Supercell
         5.263461      0.000000      0.000000
         0.000000      5.263461      0.000000
         0.000000      0.000000      5.263461
 AtomData:  id type       cartes_x      cartes_y      cartes_z           fx          fy          fz
             1    0       5.227135      1.075564      5.074682     0.080731   -0.188325    0.246946
             2    0       2.668056      1.556167      2.820510    -0.080731    0.188325   -0.246946
 Energy
        -27.578148223684
 PlusStress:  xx          yy          zz          yz          xz          xy
         0.58368     0.09006     0.52230    -0.11809     0.09904    -0.03861
 Feature   MV_grade	2.263333
END_CFG

BEGIN_CFG
 Size
    2
 Supercell
         5.263461      0.000000      0.000000
         0.000000      5.263461      0.000000
         0.000000      0.000000      5.263461
 AtomData:  id type       cartes_x      cartes_y      cartes_z           fx          fy          fz
             1    0       5.230653      1.074905      5.076085     0.072174   -0.188852    0.242736
             2    0       2.664539      1.556826      2.819107    -0.072174    0.188852   -0.242736
 Energy
        -27.579907624899
 PlusStress:  xx          yy          zz          yz          xz          xy
         0.57416     0.09076     0.51515    -0.11666     0.08812    -0.03469
 Feature   MV_grade	2.320315
END_CFG

BEGIN_CFG
 Size
    2
 Supercell
         5.263461      0.000000      0.000000
         0.000000      5.263461      0.000000
         0.000000      0.000000      5.263461
 AtomData:  id type       cartes_x      cartes_y      cartes_z           fx          fy          fz
             1    0       5.233945      1.073842      5.077358     0.064626   -0.189085    0.238900
             2    0       2.661247      1.557889      2.817834    -0.064626    0.189085   -0.238900
 Energy
        -27.581313514029
 PlusStress:  xx          yy          zz          yz          xz          xy
         0.56606     0.09112     0.50933    -0.11513     0.07861    -0.03114
 Feature   MV_grade	2.363484
END_CFG

BEGIN_CFG
 Size
    2
 Supercell
         5.263461      0.000000      0.000000
         0.000000      5.263461      0.000000
         0.000000      0.000000      5.263461
 AtomData:  id type       cartes_x      cartes_y      cartes_z           fx          fy          fz
             1    0       5.236946      1.072622      5.078051     0.057661   -0.189638    0.235526
             2    0       2.658246      1.559108      2.817141    -0.057661    0.189638   -0.235526
 Energy
        -27.582722749535
 PlusStress:  xx          yy          zz          yz          xz          xy
         0.55875     0.09179     0.50400    -0.11401     0.06989    -0.02791
 Feature   MV_grade	2.395568
END_CFG

BEGIN_CFG
 Size
    2
 Supercell
         5.263461      0.000000      0.000000
         0.000000      5.263461      0.000000
         0.000000      0.000000      5.263461
 AtomData:  id type       cartes_x      cartes_y      cartes_z           fx          fy          fz
             1    0       5.239935      1.071437      5.078709     0.051519   -0.190318    0.233441
             2    0       2.655257      1.560293      2.816483    -0.051519    0.190318   -0.233441
 Energy
        -27.583838711466
 PlusStress:  xx          yy          zz          yz          xz          xy
         0.55368     0.09259     0.49994    -0.11357     0.06227    -0.02506
 Feature   MV_grade	2.422484
END_CFG

BEGIN_CFG
 Size
    2
 Supercell
         5.263461      0.000000      0.000000
         0.000000      5.263461      0.000000
         0.000000      0.000000      5.263461
 AtomData:  id type       cartes_x      cartes_y      cartes_z           fx          fy          fz
             1    0       5.242857      1.069816      5.079477     0.045477   -0.190994    0.231522
             2    0       2.652334      1.561915      2.815715    -0.045477    0.190994   -0.231522
 Energy
        -27.584885975524
 PlusStress:  xx          yy          zz          yz          xz          xy
         0.54905     0.09337     0.49625    -0.11318     0.05482    -0.02223
 Feature   MV_grade	2.440744
END_CFG

BEGIN_CFG
 Size
    2
 Supercell
         5.263461      0.000000      0.000000
         0.000000      5.263461      0.000000
         0.000000      0.000000      5.263461
 AtomData:  id type       cartes_x      cartes_y      cartes_z           fx          fy          fz
             1    0       5.245952      1.068108      5.080386     0.039586   -0.191991    0.229527
             2    0       2.649239      1.563622      2.814806    -0.039586    0.191991   -0.229527
 Energy
        -27.586109802303
 PlusStress:  xx          yy          zz          yz          xz          xy
         0.54418     0.09448     0.49240    -0.11295     0.04759    -0.01948
 Feature   MV_grade	2.454257
END_CFG

BEGIN_CFG
 Size
    2
 Supercell
         5.263461      0.000000      0.000000
         0.000000      5.263461      0.000000
         0.000000      0.000000      5.263461
 AtomData:  id type       cartes_x      cartes_y      cartes_z           fx          fy          fz
             1    0       5.249601      1.067021      5.081039     0.033409   -0.193063    0.227340
             2    0       2.645591      1.564710      2.814153    -0.033409    0.193063   -0.227340
 Energy
        -27.587408591484
 PlusStress:  xx          yy          zz          yz          xz          xy
         0.53908     0.09567     0.48847    -0.11265     0.04005    -0.01655
 Feature   MV_grade	2.470583
END_CFG

BEGIN_CFG
 Size
    2
 Supercell
         5.263461      0.000000      0.000000
         0.000000      5.263461      0.000000
         0.000000      0.000000      5.263461
 AtomData:  id type       cartes_x      cartes_y      cartes_z           fx          fy          fz
             1    0       5.252901      1.065912      5.081501     0.026318   -0.193712    0.225626
             2    0       2.642291      1.565819      2.813691    -0.026318    0.193712   -0.225626
 Energy
        -27.588342586285
 PlusStress:  xx          yy          zz          yz          xz          xy
         0.53513     0.09641     0.48541    -0.11229     0.03148    -0.01310
 Feature   MV_grade	2.479365
END_CFG

BEGIN_CFG
 Size
    2
 Supercell
         5.263461      0.000000      0.000000
         0.000000      5.263461      0.000000
         0.000000      0.000000      5.263461
 AtomData:  id type       cartes_x      cartes_y      cartes_z           fx          fy          fz
             1    0       5.255629      1.064157      5.082706     0.019976   -0.194399    0.224436
             2    0       2.639563      1.567573      2.812486    -0.019976    0.194399   -0.224436
 Energy
        -27.589133631998
 PlusStress:  xx          yy          zz          yz          xz          xy
         0.53219     0.09718     0.48303    -0.11220     0.02385    -0.00999
 Feature   MV_grade	2.472888
END_CFG

BEGIN_CFG
 Size
    2
 Supercell
         5.263461      0.000000      0.000000
         0.000000      5.263461      0.000000
         0.000000      0.000000      5.263461
 AtomData:  id type       cartes_x      cartes_y      cartes_z           fx          fy          fz
             1    0       5.258411      1.062522      5.084201     0.014695   -0.195584    0.222066
             2    0       2.636781      1.569209      2.810990    -0.014695    0.195584   -0.222066
 Energy
        -27.590450411034
 PlusStress:  xx          yy          zz          yz          xz          xy
         0.52728     0.09846     0.47959    -0.11179     0.01750    -0.00740
 Feature   MV_grade	2.461027
END_CFG

BEGIN_CFG
 Size
    2
 Supercell
         5.263461      0.000000      0.000000
         0.000000      5.263461      0.000000
         0.000000      0.000000      5.263461
 AtomData:  id type       cartes_x      cartes_y      cartes_z           fx          fy          fz
             1    0       5.260961      1.060546      5.085647     0.009386   -0.196720    0.219242
             2    0       2.634230      1.571185      2.809545    -0.009386    0.196720   -0.219242
 Energy
        -27.591819120821
 PlusStress:  xx          yy          zz          yz          xz          xy
         0.52189     0.09968     0.47603    -0.11109     0.01115    -0.00476
 Feature   MV_grade	2.442260
END_CFG

BEGIN_CFG
 Size
    2
 Supercell
         5.263461      0.000000      0.000000
         0.000000      5.263461      0.000000
         0.000000      0.000000      5.263461
 AtomData:  id type       cartes_x      cartes_y      cartes_z           fx          fy          fz
             1    0       5.263838      1.058227      5.087101     0.004602   -0.198094    0.216624
             2    0       2.631354      1.573504      2.808090    -0.004602    0.198094   -0.216624
 Energy
        -27.593264817975
 PlusStress:  xx          yy          zz          yz          xz          xy
         0.51674     0.10115     0.47253    -0.11062     0.00545    -0.00235
 Feature   MV_grade	2.417108
END_CFG

BEGIN_CFG
 Size
    2
 Supercell
         5.263461      0.000000      0.000000
         0.000000      5.263461      0.000000
         0.000000      0.000000      5.263461
 AtomData:  id type       cartes_x      cartes_y      cartes_z           fx          fy          fz
             1    0       5.267122      1.055887      5.087958    -0.000686   -0.199705    0.214089
             2    0       2.628070      1.575844      2.807233     0.000686    0.199705   -0.214089
 Energy
        -27.594825142071
 PlusStress:  xx          yy          zz          yz          xz          xy
         0.51163     0.10290     0.46896    -0.11032    -0.00081     0.00035
 Feature   MV_grade	2.391743
END_CFG

BEGIN_CFG
 Size
    2
 Supercell
         5.263461      0.000000      0.000000
         0.000000      5.263461      0.000000
         0.000000      0.000000      5.263461
 AtomData:  id type       cartes_x      cartes_y      cartes_z           fx          fy          fz
             1    0       5.269899      1.053239      5.089125    -0.006629   -0.201307    0.212740
             2    0       2.625293      1.578491      2.806067     0.006629    0.201307   -0.212740
 Energy
        -27.596105183132
 PlusStress:  xx          yy          zz          yz          xz          xy
         0.50838     0.10467     0.46641    -0.11062    -0.00782     0.00345
 Feature   MV_grade	2.358424
END_CFG

BEGIN_CFG
 Size
    2
 Supercell
         5.263461      0.000000      0.000000
         0.000000      5.263461      0.000000
         0.000000      0.000000      5.263461
 AtomData:  id type       cartes_x      cartes_y      cartes_z           fx          fy          fz
             1    0       5.272457      1.050682      5.090412    -0.011559   -0.203134    0.210929
             2    0       2.622735      1.581049      2.804780     0.011559    0.203134   -0.210929
 Energy
        -27.597619457493
 PlusStress:  xx          yy          zz          yz          xz          xy
         0.50437     0.10670     0.46341    -0.11079    -0.01360     0.00607
 Feature   MV_grade	2.322031
END_CFG

BEGIN_CFG
 Size
    2
 Supercell
         5.263461      0.000000      0.000000
         0.000000      5.263461      0.000000
         0.000000      0.000000      5.263461
 AtomData:  id type       cartes_x      cartes_y      cartes_z           fx          fy          fz
             1    0       5.275093      1.048864      5.091539    -0.016010   -0.204912    0.208962
             2    0       2.620099      1.582866      2.803653     0.016010    0.204912   -0.208962
 Energy
        -27.599132853844
 PlusStress:  xx          yy          zz          yz          xz          xy
         0.50025     0.10868     0.46042    -0.11083    -0.01880     0.00849
 Feature   MV_grade	2.289205
END_CFG

BEGIN_CFG
 Size
    2
 Supercell
         5.263461      0.000000      0.000000
         0.000000      5.263461      0.000000
         0.000000      0.000000      5.263461
 AtomData:  id type       cartes_x      cartes_y      cartes_z           fx          fy          fz
             1    0       5.277581      1.047298      5.091882    -0.020552   -0.206205    0.207311
             2    0       2.617611      1.584432      2.803310     0.020552    0.206205   -0.207311
 Energy
        -27.600252999225
 PlusStress:  xx          yy          zz          yz          xz          xy
         0.49711     0.11011     0.45830    -0.11070    -0.02409     0.01098
 Feature   MV_grade	2.263739
END_CFG

BEGIN_CFG
 Size
    2
 Supercell
         5.263461      0.000000      0.000000
         0.000000      5.263461      0.000000
         0.000000      0.000000      5.263461
 AtomData:  id type       cartes_x      cartes_y      cartes_z           fx          fy          fz
             1    0       5.279780      1.045282      5.092749    -0.024876   -0.207291    0.207089
             2    0       2.615412      1.586448      2.802443     0.024876    0.207291   -0.207089
 Energy
        -27.600929431215
 PlusStress:  xx          yy          zz          yz          xz          xy
         0.49621     0.11134     0.45748    -0.11123    -0.02913     0.01336
 Feature   MV_grade	2.229907
END_CFG

BEGIN_CFG
 Size
    2
 Supercell
         5.263461      0.000000      0.000000
         0.000000      5.263461      0.000000
         0.000000      0.000000      5.263461
 AtomData:  id type       cartes_x      cartes_y      cartes_z           fx          fy          fz
             1    0       5.282364      1.043665      5.093641    -0.028579   -0.208697    0.205977
             2    0       2.612828      1.588066      2.801551     0.028579    0.208697   -0.205977
 Energy
        -27.602008571490
 PlusStress:  xx          yy          zz          yz          xz          xy
         0.49377     0.11294     0.45567    -0.11147    -0.03342     0.01547
 Feature   MV_grade	2.194700
END_CFG

BEGIN_CFG
 Size
    2
 Supercell
         5.263461      0.000000      0.000000
         0.000000      5.263461      0.000000
         0.000000      0.000000      5.263461
 AtomData:  id type       cartes_x      cartes_y      cartes_z           fx          fy          fz
             1    0       5.284964      1.042590      5.094883    -0.032918   -0.209860    0.204906
             2    0       2.610227      1.589140      2.800309     0.032918    0.209860   -0.204906
 Energy
        -27.602893028348
 PlusStress:  xx          yy          zz          yz          xz          xy
         0.49175     0.11425     0.45434    -0.11155    -0.03845     0.01792
 Feature   MV_grade	2.157873
END_CFG

BEGIN_CFG
 Size
    2
 Supercell
         5.263461      0.000000      0.000000
         0.000000      5.263461      0.000000
         0.000000      0.000000      5.263461
 AtomData:  id type       cartes_x      cartes_y      cartes_z           fx          fy          fz
             1    0       5.287172      1.041597      5.096387    -0.037190   -0.210703    0.203251
             2    0       2.608019      1.590134      2.798805     0.037190    0.210703   -0.203251
 Energy
        -27.603669766029
 PlusStress:  xx          yy          zz          yz          xz          xy
         0.48928     0.11516     0.45303    -0.11109    -0.04340     0.02033
 Feature   MV_grade	2.120163
END_CFG

BEGIN_CFG
 Size
    2
 Supercell
         5.263461      0.000000      0.000000
         0.000000      5.263461      0.000000
         0.000000      0.000000      5.263461
 AtomData:  id type       cartes_x      cartes_y      cartes_z           fx          fy          fz
             1    0       0.306653      4.131234      0.014808    -0.464413    0.150046   -0.058842
             2    0       2.325078      3.763958      2.616923     0.464413   -0.150046    0.058842
 Energy
        -27.482388963135
 PlusStress:  xx          yy          zz          yz          xz          xy
         0.69486     0.05487     1.09978    -0.02152     0.08884    -0.16982
 Feature   MV_grade	2.135791
END_CFG

BEGIN_CFG
 Size
    2
 Supercell
         5.263461      0.000000      0.000000
         0.000000      5.263461      0.000000
         0.000000      0.000000      5.263461
 AtomData:  id type       cartes_x      cartes_y      cartes_z           fx          fy          fz
             1    0       0.310212      4.131218      0.011684    -0.470269    0.150775   -0.050780
             2    0       2.321518      3.763974      2.620046     0.470269   -0.150775    0.050780
 Energy
        -27.479731516927
 PlusStress:  xx          yy          zz          yz          xz          xy
         0.69481     0.05538     1.11533    -0.01865     0.07703    -0.17272
 Feature   MV_grade	2.212452
END_CFG

BEGIN_CFG
 Size
    2
 Supercell
         5.263461      0.000000      0.000000
         0.000000      5.263461      0.000000
         0.000000      0.000000      5.263461
 AtomData:  id type       cartes_x      cartes_y      cartes_z           fx          fy          fz
             1    0       0.314394      4.131603      0.007854    -0.476443    0.150923   -0.040525
             2    0       2.317336      3.763588      2.623877     0.476443   -0.150923    0.040525
 Energy
        -27.476642115814
 PlusStress:  xx          yy          zz          yz          xz          xy
         0.69581     0.05543     1.13307    -0.01488     0.06182    -0.17497
 Feature   MV_grade	2.299416
END_CFG

BEGIN_CFG
 Size
    2
 Supercell
         5.263461      0.000000      0.000000
         0.000000      5.263461      0.000000
         0.000000      0.000000      5.263461
 AtomData:  id type       cartes_x      cartes_y      cartes_z           fx          fy          fz
             1    0       0.318414      4.131150      0.004082    -0.483708    0.151462   -0.027588
             2    0       2.313316      3.764041      2.627649     0.483708   -0.151462    0.027588
 Energy
        -27.473004506427
 PlusStress:  xx          yy          zz          yz          xz          xy
         0.69707     0.05574     1.15433    -0.01015     0.04236    -0.17801
 Feature   MV_grade	2.390132
END_CFG

BEGIN_CFG
 Size
    2
 Supercell
         5.263461      0.000000      0.000000
         0.000000      5.263461      0.000000
         0.000000      0.000000      5.263461
 AtomData:  id type       cartes_x      cartes_y      cartes_z           fx          fy          fz
             1    0       0.322220      4.130556      0.000651    -0.490861    0.151457   -0.014530
             2    0       2.309511      3.764636      2.631079     0.490861   -0.151457    0.014530
 Energy
        -27.469108535454
 PlusStress:  xx          yy          zz          yz          xz          xy
         0.70024     0.05560     1.17724    -0.00533     0.02247    -0.18020
 Feature   MV_grade	2.476038
END_CFG

BEGIN_CFG
 Size
    2
 Supercell
         5.263461      0.000000      0.000000
         0.000000      5.263461      0.000000
         0.000000      0.000000      5.263461
 AtomData:  id type       cartes_x      cartes_y      cartes_z           fx          fy          fz
             1    0       0.326010      4.130610     -0.003105    -0.497744    0.151413   -0.002348
             2    0       2.305720      3.764582      2.634835     0.497744   -0.151413    0.002348
 Energy
        -27.465224534634
 PlusStress:  xx          yy          zz          yz          xz          xy
         0.70439     0.05540     1.20047    -0.00086     0.00366    -0.18213
 Feature   MV_grade	2.552784
END_CFG

BEGIN_CFG
 Size
    2
 Supercell
         5.263461      0.000000      0.000000
         0.000000      5.263461      0.000000
         0.000000      0.000000      5.263461
 AtomData:  id type       cartes_x      cartes_y      cartes_z           fx          fy          fz
             1    0       0.329814      4.130655     -0.006283    -0.504615    0.151931    0.011333
             2    0       2.301917      3.764536      2.638014     0.504615   -0.151931   -0.011333
 Energy
        -27.461408225797
 PlusStress:  xx          yy          zz          yz          xz          xy
         0.70854     0.05561     1.22387     0.00415    -0.01777    -0.18470
 Feature   MV_grade	2.626971
END_CFG

BEGIN_CFG
 Size
    2
 Supercell
         5.263461      0.000000      0.000000
         0.000000      5.263461      0.000000
         0.000000      0.000000      5.263461
 AtomData:  id type       cartes_x      cartes_y      cartes_z           fx          fy          fz
             1    0       0.333679      4.131104     -0.009987    -0.511579    0.152519    0.023218
             2    0       2.298051      3.764088      2.641717     0.511579   -0.152519   -0.023218
 Energy
        -27.457447094057
 PlusStress:  xx          yy          zz          yz          xz          xy
         0.71349     0.05584     1.24849     0.00850    -0.03664    -0.18730
 Feature   MV_grade	2.692624
END_CFG

BEGIN_CFG
 Size
    2
 Supercell
         5.263461      0.000000      0.000000
         0.000000      5.263461      0.000000
         0.000000      0.000000      5.263461
 AtomData:  id type       cartes_x      cartes_y      cartes_z           fx          fy          fz
             1    0       0.336702      4.131457     -0.013685    -0.518731    0.153519    0.037351
             2    0       2.295028      3.763735      2.645415     0.518731   -0.153519   -0.037351
 Energy
        -27.453377955115
 PlusStress:  xx          yy          zz          yz          xz          xy
         0.71910     0.05634     1.27436     0.01371    -0.05932    -0.19038
 Feature   MV_grade	2.734687
END_CFG

BEGIN_CFG
 Size
    2
 Supercell
         5.263461      0.000000      0.000000
         0.000000      5.263461      0.000000
         0.000000      0.000000      5.263461
 AtomData:  id type       cartes_x      cartes_y      cartes_z           fx          fy          fz
             1    0       0.339948      4.132599     -0.017118    -0.524538    0.154429    0.051678
             2    0       2.291783      3.762593      2.648849     0.524538   -0.154429   -0.051678
 Energy
        -27.450003830405
 PlusStress:  xx          yy          zz          yz          xz          xy
         0.72505     0.05679     1.29641     0.01900    -0.08248    -0.19288
 Feature   MV_grade	2.767799
END_CFG

BEGIN_CFG
 Size
    2
 Supercell
         5.263461      0.000000      0.000000
         0.000000      5.263461      0.000000
         0.000000      0.000000      5.263461
 AtomData:  id type       cartes_x      cartes_y      cartes_z           fx          fy          fz
             1    0       0.343232      4.133892     -0.020239    -0.530713    0.156031    0.065258
             2    0       2.288498      3.761300      2.651969     0.530713   -0.156031   -0.065258
 Energy
        -27.446531961329
 PlusStress:  xx          yy          zz          yz          xz          xy
         0.73076     0.05773     1.31948     0.02415    -0.10464    -0.19637
 Feature   MV_grade	2.795298
END_CFG

BEGIN_CFG
 Size
    2
 Supercell
         5.263461      0.000000      0.000000
         0.000000      5.263461      0.000000
         0.000000      0.000000      5.263461
 AtomData:  id type       cartes_x      cartes_y      cartes_z           fx          fy          fz
             1    0       0.346003      4.135935     -0.023899    -0.536976    0.157807    0.077892
             2    0       2.285728      3.759256      2.655629     0.536976   -0.157807   -0.077892
 Energy
        -27.442984494972
 PlusStress:  xx          yy          zz          yz          xz          xy
         0.73672     0.05880     1.34321     0.02902    -0.12543    -0.20007
 Feature   MV_grade	2.790964
END_CFG

BEGIN_CFG
 Size
    2
 Supercell