BEGIN_CFG
 Size
    2
 Supercell
         5.161258      0.000000      0.000000
         0.000000      5.161258      0.000000
         0.000000      0.000000      5.161258
 AtomData:  id type       cartes_x      cartes_y      cartes_z           fx          fy          fz
             1    0      -0.006678      5.153735      4.129557     0.011453    0.012894    0.197055
             2    0       2.587307      2.588152      3.612330    -0.011453   -0.012894   -0.197055
 Energy
        -27.632691886800
 PlusStress:  xx          yy          zz          yz          xz          xy
         1.04423     1.04410    -1.14635     0.00568     0.00505     0.00038
 Feature   EFS_by	Qe
 Feature   ID	-1
 Feature   mindist	3.666146
END_CFG

BEGIN_CFG
 Size
    2
 Supercell
         5.365664      0.000000      0.000000
         0.000000      5.365664      0.000000
         0.000000      0.000000      5.365664
 AtomData:  id type       cartes_x      cartes_y      cartes_z           fx          fy          fz
             1    0       5.366235      0.243599     -0.000965    -0.000329   -0.133964    0.000691
             2    0       2.682262      2.439233      2.683797     0.000329    0.133964   -0.000691
 Energy
        -28.022446827500
 PlusStress:  xx          yy          zz          yz          xz          xy
        -0.52550    -0.63770    -0.52550    -0.00057    -0.00000     0.00028
 Feature   EFS_by	Qe
 Feature   ID	-1
 Feature   mindist	4.381725
END_CFG

BEGIN_CFG
 Size
    2
 Supercell
         4.854649      0.000000      0.000000
         0.000000      4.854649      0.000000
         0.000000      0.000000      4.854649
 AtomData:  id type       cartes_x      cartes_y      cartes_z           fx          fy          fz
             1    0       0.354226      4.547954      4.858037    -0.385740    0.359459   -0.005158
             2    0       2.073098      2.734019      2.423936     0.385740   -0.359459    0.005158
 Energy
        -27.889439613400
 PlusStress:  xx          yy          zz          yz          xz          xy
         0.13887     0.28899     0.86844    -0.00378     0.00410    -0.27953
 Feature   EFS_by	Qe
 Feature   ID	-1
 Feature   mindist	3.479071
END_CFG

BEGIN_CFG
 Size
    2
 Supercell
         5.365664      0.000000      0.000000
         0.000000      5.365664      0.000000
         0.000000      0.000000      5.365664
 AtomData:  id type       cartes_x      cartes_y      cartes_z           fx          fy          fz
             1    0       4.654736      5.326222     -0.003797     0.264008    0.043764    0.004257
             2    0       3.393760      2.722274      2.686630    -0.264008   -0.043764   -0.004257
 Energy
        -27.815857576600
 PlusStress:  xx          yy          zz          yz          xz          xy
        -0.81740     0.10014     0.10780     0.00071     0.00440     0.04567
 Feature   EFS_by	Qe
 Feature   ID	-1
 Feature   mindist	3.940495
END_CFG

BEGIN_CFG
 Size
    1
 Supercell
         1.916316      1.916319      1.916326
        -1.916329      1.916336      1.916342
        -1.916346     -1.916352      1.916356
 AtomData:  id type       cartes_x      cartes_y      cartes_z           fx          fy          fz
             1    0       0.000000      0.000000      0.000000     0.000000    0.000000    0.000000
 Energy
        -12.934274239300
 PlusStress:  xx          yy          zz          yz          xz          xy
         3.07321     3.07300     3.07303     0.00000    -0.00003     0.00008
 Feature   EFS_by	Qe
 Feature   ID	-1
 Feature   mindist	3.319164
END_CFG

BEGIN_CFG
 Size
    2
 Supercell
         4.599143      0.000000      0.000000
         0.000000      4.599143      0.000000
         0.000000      0.000000      4.599148
 AtomData:  id type       cartes_x      cartes_y      cartes_z           fx          fy          fz
             1    0       0.000000      0.000000      0.000000     0.000000    0.000000    0.000000
             2    0       2.299572      2.299573      2.299588     0.000000    0.000000    0.000000
 Energy
        -27.785832669300
 PlusStress:  xx          yy          zz          yz          xz          xy
         1.39098     1.39098     1.39098     0.00000     0.00000     0.00000
 Feature   EFS_by	Qe
 Feature   ID	-1
 Feature   mindist	3.982967
END_CFG

BEGIN_CFG
 Size
    2
 Supercell
         4.854649      0.000000      0.000000
         0.000000      4.854649      0.000000
         0.000000      0.000000      4.854649
 AtomData:  id type       cartes_x      cartes_y      cartes_z           fx          fy          fz
             1    0       3.981403      0.637648      3.073755     0.164166   -0.161585   -0.167802
             2    0       3.300570      1.789676      4.208218    -0.164166    0.161585    0.167802
 Energy
        -26.364233263400
 PlusStress:  xx          yy          zz          yz          xz          xy
        -1.00668    -0.20789    -0.23899    -0.11377     0.06030     0.06408
 Feature   EFS_by	Qe
 Feature   ID	-1
 Feature   mindist	1.754340
END_CFG

BEGIN_CFG
 Size
    2
 Supercell
         4.854649      0.000000      0.000000
         0.000000      4.854649      0.000000
         0.000000      0.000000      4.854649
 AtomData:  id type       cartes_x      cartes_y      cartes_z           fx          fy          fz
             1    0       0.810704      3.653536     -1.246465    32.631210   -1.009652    2.638914
             2    0       1.616620      3.628437      3.673789   -32.631210    1.009652   -2.638914
 Energy
        -27.503190995900
 PlusStress:  xx          yy          zz          yz          xz          xy
       -26.46839    -0.65015    -0.79217     0.06702    -2.14488     0.82064
 Feature   EFS_by	Qe
 Feature   ID	-1
 Feature   mindist	0.808971
END_CFG

BEGIN_CFG
 Size
    2
 Supercell
         4.956852      0.000000      0.000000
         0.000000      4.956852      0.000000
         0.000000      0.000000      4.956852
 AtomData:  id type       cartes_x      cartes_y      cartes_z           fx          fy          fz
             1    0       4.957206      0.157510      4.182103     0.003793   -0.334872    0.391637
             2    0       2.478072      2.320916      3.253175    -0.003793    0.334872   -0.391637
 Energy
        -27.655086244225
 PlusStress:  xx          yy          zz          yz          xz          xy
         1.62312     1.29867    -1.24081    -0.30809     0.00350    -0.00423
 Feature   MV_grade	2.110597
END_CFG

BEGIN_CFG
 Size
    2
 Supercell
         4.854649      0.000000      0.000000
         0.000000      4.854649      0.000000
         0.000000      0.000000      4.854649
 AtomData:  id type       cartes_x      cartes_y      cartes_z           fx          fy          fz
             1    0       0.172920     -0.044094      0.090021    -0.185919    0.050902   -0.102311
             2    0       2.254404      2.471418      2.337303     0.185919   -0.050902    0.102311
 Energy
        -28.089506431100
 PlusStress:  xx          yy          zz          yz          xz          xy
         0.17112     0.31609     0.28279    -0.01303     0.04822    -0.02395
 Feature   EFS_by	Qe
 Feature   ID	-1
 Feature   mindist	3.854142
END_CFG

BEGIN_CFG
 Size
    2
 Supercell
         5.263461      0.000000      0.000000
         0.000000      5.263461      0.000000
         0.000000      0.000000      5.263461
 AtomData:  id type       cartes_x      cartes_y      cartes_z           fx          fy          fz
             1    0       5.258024      5.074908      5.264476     0.003891    0.121359   -0.000667
             2    0       2.637167      2.820284      2.630716    -0.003891   -0.121359    0.000667
 Energy
        -28.065151968500
 PlusStress:  xx          yy          zz          yz          xz          xy
        -0.42803    -0.51198    -0.42776    -0.00054    -0.00000     0.00268
 Feature   EFS_by	Qe
 Feature   ID	-1
 Feature   mindist	4.343679
END_CFG

BEGIN_CFG
 Size
    2
 Supercell
         4.956852      0.000000      0.000000
         0.000000      4.956852      0.000000
         0.000000      0.000000      4.956852
 AtomData:  id type       cartes_x      cartes_y      cartes_z           fx          fy          fz
             1    0       4.822730      0.515778      0.458445     0.631687   -0.785310   -0.685073
             2    0       2.612547      1.962648      2.019981    -0.631687    0.785310    0.685073
 Energy
        -27.566859422637
 PlusStress:  xx          yy          zz          yz          xz          xy
         1.57335    -0.57147    -0.04515     1.15937    -0.80982    -0.49628
 Feature   MV_grade	7.397584
END_CFG

BEGIN_CFG
 Size
    2
 Supercell
         5.365664      0.000000      0.000000
         0.000000      5.365664      0.000000
         0.000000      0.000000      5.365664
 AtomData:  id type       cartes_x      cartes_y      cartes_z           fx          fy          fz
             1    0       4.562356      5.117813      4.959839     0.498133    0.698632    0.810461
             2    0       3.486140      2.930683      3.088658    -0.498133   -0.698632   -0.810461
 Energy
        -27.470454649431
 PlusStress:  xx          yy          zz          yz          xz          xy
         0.53510     1.52849     0.87216     0.61859     0.87061     0.75048
 Feature   MV_grade	12.633071
END_CFG

BEGIN_CFG
 Size
    2
 Supercell
         5.365664      0.000000      0.000000
         0.000000      5.365664      0.000000
         0.000000      0.000000      5.365664
 AtomData:  id type       cartes_x      cartes_y      cartes_z           fx          fy          fz
             1    0       5.372310      1.369607      5.359112    -0.010534    0.018237    0.010383
             2    0       2.676186      1.313225      2.689384     0.010534   -0.018237   -0.010383
 Energy
        -27.609014171400
 PlusStress:  xx          yy          zz          yz          xz          xy
         0.75301    -1.15441     0.75315     0.00057    -0.00028    -0.00057
 Feature   EFS_by	Qe
 Feature   ID	-1
 Feature   mindist	3.775854
END_CFG

BEGIN_CFG
 Size
    2
 Supercell
         4.854649      0.000000      0.000000
         0.000000      4.854649      0.000000
         0.000000      0.000000      4.854649
 AtomData:  id type       cartes_x      cartes_y      cartes_z           fx          fy          fz
             1    0       4.363028      0.004004      4.840601     0.407678   -0.005799    0.020390
             2    0       2.918945      2.423320      2.441371    -0.407678    0.005799   -0.020390
 Energy
        -27.901437385600
 PlusStress:  xx          yy          zz          yz          xz          xy
        -0.31147     0.82778     0.82642    -0.00021     0.01691    -0.00483
 Feature   EFS_by	Qe
 Feature   ID	-1
 Feature   mindist	3.700644
END_CFG

BEGIN_CFG
 Size
    2
 Supercell
         4.854649      0.000000      0.000000
         0.000000      4.854649      0.000000
         0.000000      0.000000      4.854649
 AtomData:  id type       cartes_x      cartes_y      cartes_z           fx          fy          fz
             1    0       3.879372      0.596369      3.399176    -0.869391    2.691595    0.880483
             2    0       3.402601      1.830956      3.882797     0.869391   -2.691595   -0.880483
 Energy
        -26.019200371700
 PlusStress:  xx          yy          zz          yz          xz          xy
        -1.38864    -3.66420    -1.39305    -1.38433     0.49047     1.36542
 Feature   EFS_by	Qe
 Feature   ID	-1
 Feature   mindist	1.409044
END_CFG

BEGIN_CFG
 Size
    2
 Supercell
         5.263461      0.000000      0.000000
         0.000000      5.263461      0.000000
         0.000000      0.000000      5.263461
 AtomData:  id type       cartes_x      cartes_y      cartes_z           fx          fy          fz
             1    0       0.376921      4.224440     -0.116349    -0.676002    0.271493    0.470003
             2    0       2.254809      3.670752      2.748080     0.676002   -0.271493   -0.470003
 Energy
        -27.389105288120
 PlusStress:  xx          yy          zz          yz          xz          xy
         1.02222     0.14834     1.80991     0.25679    -0.71372    -0.36935
 Feature   MV_grade	10.018541
END_CFG

BEGIN_CFG
 Size
    2
 Supercell
         4.854649      0.000000      0.000000
         0.000000      4.854649      0.000000
         0.000000      0.000000      4.854649
 AtomData:  id type       cartes_x      cartes_y      cartes_z           fx          fy          fz
             1    0       0.356768      4.598013      4.464659    -0.706418    0.604209    0.765348
             2    0       2.070557      2.683960      2.817313     0.706418   -0.604209   -0.765348
 Energy
        -27.705928788131
 PlusStress:  xx          yy          zz          yz          xz          xy
        -0.44964     0.53253    -0.81197     0.96098    -0.68710    -1.09302
 Feature   MV_grade	9.292393
END_CFG

BEGIN_CFG
 Size
    2
 Supercell
         4.956852      0.000000      0.000000
         0.000000      4.956852      0.000000
         0.000000      0.000000      4.956852
 AtomData:  id type       cartes_x      cartes_y      cartes_z           fx          fy          fz
             1    0       0.427512      4.783966      4.935077    -0.361604    0.209824    0.028565
             2    0       2.050914      2.651312      2.500201     0.361604   -0.209824   -0.028565
 Energy
        -27.939617137200
 PlusStress:  xx          yy          zz          yz          xz          xy
        -0.25697     0.36812     0.54112     0.01420    -0.02527    -0.18630
 Feature   EFS_by	Qe
 Feature   ID	-1
 Feature   mindist	3.621087
END_CFG

BEGIN_CFG
 Size
    2
 Supercell
         5.263461      0.000000      0.000000
         0.000000      5.263461      0.000000
         0.000000      0.000000      5.263461
 AtomData:  id type       cartes_x      cartes_y      cartes_z           fx          fy          fz
             1    0       0.346003      4.135935     -0.023899    -0.536976    0.157807    0.077892
             2    0       2.285728      3.759256      2.655629     0.536976   -0.157807   -0.077892
 Energy
        -27.442984494972
 PlusStress:  xx          yy          zz          yz          xz          xy
         0.73672     0.05880     1.34321     0.02902    -0.12543    -0.20007
 Feature   MV_grade	2.790964
END_CFG

BEGIN_CFG
 Size
    2
 Supercell
         5.161258      0.000000      0.000000
         0.000000      5.161258      0.000000
         0.000000      0.000000      5.161258
 AtomData:  id type       cartes_x      cartes_y      cartes_z           fx          fy          fz
             1    0       0.000000      0.000000      0.000000     0.000000    0.000000    0.000000
             2    0       2.580629      2.580629      2.580629     0.000000    0.000000    0.000000
 Energy
        -28.113499934700
 PlusStress:  xx          yy          zz          yz          xz          xy
        -0.34930    -0.34930    -0.34930     0.00000     0.00000     0.00000
 Feature   EFS_by	Qe
 Feature   ID	-1
 Feature   mindist	4.469781
END_CFG

BEGIN_CFG
 Size
    2
 Supercell
         5.365664      0.000000      0.000000
         0.000000      5.365664      0.000000
         0.000000      0.000000      5.365664
 AtomData:  id type       cartes_x      cartes_y      cartes_z           fx          fy          fz
             1    0       0.622739      2.222375      5.387672    -0.375556    0.395754   -0.032402
             2    0       2.060093      0.460457      2.660824     0.375556   -0.395754    0.032402
 Energy
        -27.665690454400
 PlusStress:  xx          yy          zz          yz          xz          xy
        -0.58252    -0.25105     0.59926    -0.03759     0.03617    -0.44934
 Feature   EFS_by	Qe
 Feature   ID	-1
 Feature   mindist	3.483345
END_CFG

BEGIN_CFG
 Size
    2
 Supercell
         4.803548      0.000000      0.000000
         0.000000      4.803548      0.000000
         0.000000      0.000000      4.803553
 AtomData:  id type       cartes_x      cartes_y      cartes_z           fx          fy          fz
             1    0       0.000000      0.000000      0.000000     0.000000    0.000000    0.000000
             2    0       2.401775      2.401775      2.401791     0.000000    0.000000    0.000000
 Energy
        -27.921971777800
 PlusStress:  xx          yy          zz          yz          xz          xy
         0.72834     0.72834     0.72834     0.00000     0.00000     0.00000
 Feature   EFS_by	Qe
 Feature   ID	-1
 Feature   mindist	4.159987
END_CFG

BEGIN_CFG
 Size
    2
 Supercell
         4.956852      0.000000      0.000000
         0.000000      4.956852      0.000000
         0.000000      0.000000      4.956852
 AtomData:  id type       cartes_x      cartes_y      cartes_z           fx          fy          fz
             1    0       4.619879      4.669832      4.521295     0.710936    0.800451    0.783246
             2    0       2.815399      2.765446      2.913983    -0.710936   -0.800451   -0.783246
 Energy
        -27.654456658702
 PlusStress:  xx          yy          zz          yz          xz          xy
         0.49185     0.67934    -0.02013     0.86372     1.23266     1.12599
 Feature   MV_grade	10.877290
END_CFG

BEGIN_CFG
 Size
    2
 Supercell
         5.059055      0.000000      0.000000
         0.000000      5.059055      0.000000
         0.000000      0.000000      5.059055
 AtomData:  id type       cartes_x      cartes_y      cartes_z           fx          fy          fz
             1    0       0.305936      5.098379      0.264192    -0.272547   -0.044162   -0.249470
             2    0       2.223592      2.490203      2.265335     0.272547    0.044162    0.249470
 Energy
        -27.986221261700
 PlusStress:  xx          yy          zz          yz          xz          xy
        -0.16691     0.21435    -0.08274     0.03305     0.20912     0.03638
 Feature   EFS_by	Qe
 Feature   ID	-1
 Feature   mindist	3.699836
END_CFG

BEGIN_CFG
 Size
    2
 Supercell
         4.854649      0.000000      0.000000
         0.000000      4.854649      0.000000
         0.000000      0.000000      4.854649
 AtomData:  id type       cartes_x      cartes_y      cartes_z           fx          fy          fz
             1    0       4.787036      0.858135      4.631367     0.502739   -0.516545    0.765123
             2    0       2.494937      1.569189      2.650605    -0.502739    0.516545   -0.765123
 Energy
        -27.447255014366
 PlusStress:  xx          yy          zz          yz          xz          xy
         3.39765    -4.55926     2.34230    -0.54378     0.82875    -0.36119
 Feature   MV_grade	10.408924
END_CFG

BEGIN_CFG
 Size
    1
 Supercell
         2.810587      2.810587      2.810587
        -2.810587      2.810592      2.810592
        -2.810592     -2.810592      2.810592
 AtomData:  id type       cartes_x      cartes_y      cartes_z           fx          fy          fz
             1    0       0.000000      0.000000      0.000000     0.000000    0.000000    0.000000
 Energy
        -13.932579446800
 PlusStress:  xx          yy          zz          yz          xz          xy
        -0.36481    -0.36481    -0.36489    -0.00008    -0.00000     0.00000
 Feature   EFS_by	Qe
 Feature   ID	-1
 Feature   mindist	4.868079
END_CFG

BEGIN_CFG
 Size
    2
 Supercell
         5.161258      0.000000      0.000000
         0.000000      5.161258      0.000000
         0.000000      0.000000      5.161258
 AtomData:  id type       cartes_x      cartes_y      cartes_z           fx          fy          fz
             1    0       5.036907      0.568100      0.510983     0.535188   -0.653578   -0.739403
             2    0       2.704980      2.012529      2.069646    -0.535188    0.653578    0.739403
 Energy
        -27.539021182827
 PlusStress:  xx          yy          zz          yz          xz          xy
         1.03081     0.14783    -0.06712     1.24961    -0.34631    -0.39077
 Feature   MV_grade	2.303675
END_CFG

BEGIN_CFG
 Size
    1
 Supercell
         2.555087      4.088125      4.088131
        -2.555099      2.555106      2.555112
        -2.555118     -2.555118      2.555125
 AtomData:  id type       cartes_x      cartes_y      cartes_z           fx          fy          fz
             1    0       0.000000      0.000000      0.000000     0.000000    0.000000    0.000000
 Energy
        -13.889475250800
 PlusStress:  xx          yy          zz          yz          xz          xy
        -0.30208    -0.23192    -0.21926    -0.05193    -0.23335    -0.01107
 Feature   EFS_by	Qe
 Feature   ID	-1
 Feature   mindist	4.425573
END_CFG

BEGIN_CFG
 Size
    2
 Supercell
         5.161258      0.000000      0.000000
         0.000000      5.161258      0.000000
         0.000000      0.000000      5.161258
 AtomData:  id type       cartes_x      cartes_y      cartes_z           fx          fy          fz
             1    0       4.651371      4.867307      4.756699     0.672828    0.708533    0.825092
             2    0       3.090516      2.874580      2.985188    -0.672828   -0.708533   -0.825092
 Energy
        -27.595687418216
 PlusStress:  xx          yy          zz          yz          xz          xy
         0.70939     1.17504     0.68543     0.61916     1.31346     1.21772
 Feature   MV_grade	10.516779
END_CFG

BEGIN_CFG
 Size
    2
 Supercell
         4.854649      0.000000      0.000000
         0.000000      4.854649      0.000000
         0.000000      0.000000      4.854649
 AtomData:  id type       cartes_x      cartes_y      cartes_z           fx          fy          fz
             1    0       0.340605      4.630387      4.488487    -0.545242    0.394960    0.580846
             2    0       2.086719      2.651586      2.793486     0.545242   -0.394960   -0.580846
 Energy
        -27.780787678743
 PlusStress:  xx          yy          zz          yz          xz          xy
        -0.39002     0.61055    -0.60914     0.73765    -0.46617    -0.79394
 Feature   MV_grade	2.270781
END_CFG

BEGIN_CFG
 Size
    2
 Supercell
         4.854649      0.000000      0.000000
         0.000000      4.854649      0.000000
         0.000000      0.000000      4.854649
 AtomData:  id type       cartes_x      cartes_y      cartes_z           fx          fy          fz
             1    0       4.534008      0.233746      4.641840     0.370043   -0.304727    0.284624
             2    0       2.747965      2.193578      2.640133    -0.370043    0.304727   -0.284624
 Energy
        -27.898987272500
 PlusStress:  xx          yy          zz          yz          xz          xy
         0.23815     0.49646     0.55266    -0.17974     0.21661    -0.23142
 Feature   EFS_by	Qe
 Feature   ID	-1
 Feature   mindist	3.322307
END_CFG

BEGIN_CFG
 Size
    2
 Supercell
         5.059055      0.000000      0.000000
         0.000000      5.059055      0.000000
         0.000000      0.000000      5.059055
 AtomData:  id type       cartes_x      cartes_y      cartes_z           fx          fy          fz
             1    0       2.967406      0.069343      4.633172    -0.418321   -0.108781    0.416326
             2    0       4.621177      2.460185      2.955411     0.418321    0.108781   -0.416326
 Energy
        -27.784089371900
 PlusStress:  xx          yy          zz          yz          xz          xy
        -0.12661     0.78571    -0.09178    -0.10676    -0.40528     0.10723
 Feature   EFS_by	Qe
 Feature   ID	-1
 Feature   mindist	3.356481
END_CFG

BEGIN_CFG
 Size
    2
 Supercell
         4.956852      0.000000      0.000000
         0.000000      4.956852      0.000000
         0.000000      0.000000      4.956852
 AtomData:  id type       cartes_x      cartes_y      cartes_z           fx          fy          fz
             1    0       0.260742      4.968709      0.206518    -0.254043   -0.013707   -0.214302
             2    0       2.217684      2.466569      2.271908     0.254043    0.013707    0.214302
 Energy
        -28.030008327400
 PlusStress:  xx          yy          zz          yz          xz          xy
        -0.02203     0.29443     0.08521     0.00794     0.15085     0.00951
 Feature   EFS_by	Qe
 Feature   ID	-1
 Feature   mindist	3.757802
END_CFG

BEGIN_CFG
 Size
    2
 Supercell
         4.854649      0.000000      0.000000
         0.000000      4.854649      0.000000
         0.000000      0.000000      4.854649
 AtomData:  id type       cartes_x      cartes_y      cartes_z           fx          fy          fz
             1    0       0.221806      4.675257      4.657780    -0.255808    0.215890    0.233035
             2    0       2.205518      2.606715      2.624193     0.255808   -0.215890   -0.233035
 Energy
        -27.997014794000
 PlusStress:  xx          yy          zz          yz          xz          xy
         0.28920     0.38122     0.34487     0.11282    -0.13415    -0.12417
 Feature   EFS_by	Qe
 Feature   ID	-1
 Feature   mindist	3.514179
END_CFG

BEGIN_CFG
 Size
    2
 Supercell
         5.365664      0.000000      0.000000
         0.000000      5.365664      0.000000
         0.000000      0.000000      5.365664
 AtomData:  id type       cartes_x      cartes_y      cartes_z           fx          fy          fz
             1    0       0.001066      0.283314      0.292690    -0.000774   -0.182207   -0.185757
             2    0       2.681766      2.399518      2.390142     0.000774    0.182207    0.185757
 Energy
        -27.954956059400
 PlusStress:  xx          yy          zz          yz          xz          xy
        -0.31786    -0.51231    -0.52253     0.18339     0.00085     0.00085
 Feature   EFS_by	Qe
 Feature   ID	-1
 Feature   mindist	4.007964
END_CFG

BEGIN_CFG
 Size
    2
 Supercell
         5.365664      0.000000      0.000000
         0.000000      5.365664      0.000000
         0.000000      0.000000      5.365664
 AtomData:  id type       cartes_x      cartes_y      cartes_z           fx          fy          fz
             1    0       0.000000      0.000000      0.000000     0.000000    0.000000    0.000000
             2    0       2.682832      2.682832      2.682832     0.000000    0.000000    0.000000
 Energy
        -28.055801183900
 PlusStress:  xx          yy          zz          yz          xz          xy
        -0.62635    -0.62635    -0.62635     0.00000     0.00000     0.00000
 Feature   EFS_by	Qe
 Feature   ID	-1
 Feature   mindist	4.646801
END_CFG

BEGIN_CFG
 Size
    2
 Supercell
         5.059055      0.000000      0.000000
         0.000000      5.059055      0.000000
         0.000000      0.000000      5.059055
 AtomData:  id type       cartes_x      cartes_y      cartes_z           fx          fy          fz
             1    0       4.815132      5.054799      5.056215     0.199517    0.004129    0.002714
             2    0       2.773450      2.533783      2.532367    -0.199517   -0.004129   -0.002714
 Energy
        -28.083189852100
 PlusStress:  xx          yy          zz          yz          xz          xy
        -0.26285    -0.04862    -0.04839     0.00000     0.00190     0.00297
 Feature   EFS_by	Qe
 Feature   ID	-1
 Feature   mindist	4.110206
END_CFG

BEGIN_CFG
 Size
    2
 Supercell
         5.007954      0.000000      0.000000
         0.000000      5.007954      0.000000
         0.000000      0.000000      5.007959
 AtomData:  id type       cartes_x      cartes_y      cartes_z           fx          fy          fz
             1    0       0.000000      0.000000      0.000000     0.000000    0.000000    0.000000
             2    0       2.503977      2.503978      2.503994     0.000000    0.000000    0.000000
 Energy
        -27.979489300800
 PlusStress:  xx          yy          zz          yz          xz          xy
         0.21634     0.21634     0.21634     0.00000     0.00000     0.00000
 Feature   EFS_by	Qe
 Feature   ID	-1
 Feature   mindist	4.337007
END_CFG

BEGIN_CFG
 Size
    2
 Supercell
         4.854649      0.000000      0.000000
         0.000000      4.854649      0.000000
         0.000000      0.000000      4.854649
 AtomData:  id type       cartes_x      cartes_y      cartes_z           fx          fy          fz
             1    0       4.492565     -0.002386      4.844352     0.342293    0.003104    0.013353
             2    0       2.789408      2.429710      2.437621    -0.342293   -0.003104   -0.013353
 Energy
        -27.999622325000
 PlusStress:  xx          yy          zz          yz          xz          xy
        -0.08246     0.56422     0.56359     0.00011     0.01040     0.00242
 Feature   EFS_by	Qe
 Feature   ID	-1
 Feature   mindist	3.816000
END_CFG

BEGIN_CFG
 Size
    2
 Supercell
         5.263461      0.000000      0.000000
         0.000000      5.263461      0.000000
         0.000000      0.000000      5.263461
 AtomData:  id type       cartes_x      cartes_y      cartes_z           fx          fy          fz
             1    0       5.022253      0.238624      0.232730     0.189470   -0.188065   -0.184675
             2    0       2.872939      2.393106      2.399001    -0.189470    0.188065    0.184675
 Energy
        -27.965537342900
 PlusStress:  xx          yy          zz          yz          xz          xy
        -0.31570    -0.31182    -0.30419     0.15022    -0.15142    -0.15424
 Feature   EFS_by	Qe
 Feature   ID	-1
 Feature   mindist	3.735515
END_CFG

BEGIN_CFG
 Size
    2
 Supercell
         4.854649      0.000000      0.000000
         0.000000      4.854649      0.000000
         0.000000      0.000000      4.854649
 AtomData:  id type       cartes_x      cartes_y      cartes_z           fx          fy          fz
             1    0       4.824198      0.744491      4.628312     0.160804   -0.516160    0.548617
             2    0       2.457775      1.682833      2.653660    -0.160804    0.516160   -0.548617
 Energy
        -27.591538678158
 PlusStress:  xx          yy          zz          yz          xz          xy