BEGIN_CFG
 Size
    2
 Supercell
         5.263461      0.000000      0.000000
         0.000000      5.263461      0.000000
         0.000000      0.000000      5.263461
 AtomData:  id type       cartes_x      cartes_y      cartes_z           fx          fy          fz
             1    0       5.294580      0.709829      0.129887    -0.039592   -0.303648   -0.158353
             2    0       2.600612      1.921902      2.501843     0.039592    0.303648    0.158353
 Energy
        -27.796976684300
 PlusStress:  xx          yy          zz          yz          xz          xy
         0.36283    -0.79367     0.27808     0.15424     0.01848     0.03842
 Feature   EFS_by	Qe
 Feature   mindist	3.701026
END_CFG

BEGIN_CFG
 Size
    2
 Supercell
         4.854649      0.000000      0.000000
         0.000000      4.854649      0.000000
         0.000000      0.000000      4.854649
 AtomData:  id type       cartes_x      cartes_y      cartes_z           fx          fy          fz
             1    0       0.311773      4.766919      5.031054    -0.324864    0.114055   -0.215798
             2    0       2.115552      2.515054      2.250918     0.324864   -0.114055    0.215798
 Energy
        -27.984207619100
 PlusStress:  xx          yy          zz          yz          xz          xy
         0.08519     0.55791     0.41683    -0.05389     0.15621    -0.08225
 Feature   EFS_by	Qe
 Feature   mindist	3.553607
END_CFG

BEGIN_CFG
 Size
    2
 Supercell
         5.161258      0.000000      0.000000
         0.000000      5.161258      0.000000
         0.000000      0.000000      5.161258
 AtomData:  id type       cartes_x      cartes_y      cartes_z           fx          fy          fz
             1    0       0.487360      5.040604      0.247571    -0.342061    0.143659   -0.261072
             2    0       2.093269      2.701283      2.333058     0.342061   -0.143659    0.261072
 Energy
        -27.869451353800
 PlusStress:  xx          yy          zz          yz          xz          xy
        -0.44574     0.28125     0.06691    -0.10945     0.27166    -0.14820
 Feature   EFS_by	Qe
 Feature   mindist	3.521451
END_CFG

BEGIN_CFG
 Size
    2
 Supercell
         4.854649      0.000000      0.000000
         0.000000      4.854649      0.000000
         0.000000      0.000000      4.854649
 AtomData:  id type       cartes_x      cartes_y      cartes_z           fx          fy          fz
             1    0       0.202701      4.701413      4.778067    -0.221407    0.174904    0.091389
             2    0       2.224623      2.580560      2.503905     0.221407   -0.174904   -0.091389
 Energy
        -28.055392741000
 PlusStress:  xx          yy          zz          yz          xz          xy
         0.19371     0.28384     0.38112     0.03813    -0.04864    -0.09381
 Feature   EFS_by	Qe
 Feature   mindist	3.709177
END_CFG

BEGIN_CFG
 Size
    2
 Supercell
         5.365664      0.000000      0.000000
         0.000000      5.365664      0.000000
         0.000000      0.000000      5.365664
 AtomData:  id type       cartes_x      cartes_y      cartes_z           fx          fy          fz
             1    0       0.097040      0.255222      0.632669    -0.111432   -0.253020   -0.303809
             2    0       2.585792      2.427610      2.050163     0.111432    0.253020    0.303809
 Energy
        -27.783147857900
 PlusStress:  xx          yy          zz          yz          xz          xy
         0.17035    -0.05915    -0.70606     0.28367     0.12382     0.09815
 Feature   EFS_by	Qe
 Feature   mindist	3.594780
END_CFG

BEGIN_CFG
 Size
    2
 Supercell
         5.263461      0.000000      0.000000
         0.000000      5.263461      0.000000
         0.000000      0.000000      5.263461
 AtomData:  id type       cartes_x      cartes_y      cartes_z           fx          fy          fz
             1    0       0.230797      0.177124      0.541009    -0.241969   -0.196603   -0.329275
             2    0       2.400933      2.454607      2.090721     0.241969    0.196603    0.329275
 Energy
        -27.827830722500
 PlusStress:  xx          yy          zz          yz          xz          xy
         0.04110     0.13362    -0.56151     0.21569     0.26643     0.15249
 Feature   EFS_by	Qe
 Feature   mindist	3.506854
END_CFG

BEGIN_CFG
 Size
    2
 Supercell
         4.956852      0.000000      0.000000
         0.000000      4.956852      0.000000
         0.000000      0.000000      4.956852
 AtomData:  id type       cartes_x      cartes_y      cartes_z           fx          fy          fz
             1    0       0.213219      4.801791      4.879600    -0.208573    0.160178    0.083606
             2    0       2.265207      2.633487      2.555678     0.208573   -0.160178   -0.083606
 Energy
        -28.064746518900
 PlusStress:  xx          yy          zz          yz          xz          xy
        -0.00872     0.08420     0.16986     0.03836    -0.05043    -0.09729
 Feature   EFS_by	Qe
 Feature   mindist	3.783227
END_CFG

BEGIN_CFG
 Size
    2
 Supercell
         4.854649      0.000000      0.000000
         0.000000      4.854649      0.000000
         0.000000      0.000000      4.854649
 AtomData:  id type       cartes_x      cartes_y      cartes_z           fx          fy          fz
             1    0       3.981403      0.637648      3.073755     0.164166   -0.161585   -0.167802
             2    0       3.300570      1.789676      4.208218    -0.164166    0.161585    0.167802
 Energy
        -26.364233263400
 PlusStress:  xx          yy          zz          yz          xz          xy
        -1.00668    -0.20789    -0.23899    -0.11377     0.06030     0.06408
 Feature   EFS_by	Qe
 Feature   mindist	1.754340
END_CFG

BEGIN_CFG
 Size
    2
 Supercell
         5.365664      0.000000      0.000000
         0.000000      5.365664      0.000000
         0.000000      0.000000      5.365664
 AtomData:  id type       cartes_x      cartes_y      cartes_z           fx          fy          fz
             1    0       0.382650      5.294029      0.251916    -0.227135    0.060938   -0.183546
             2    0       2.300182      2.754467      2.430916     0.227135   -0.060938    0.183546
 Energy
        -27.924959588000
 PlusStress:  xx          yy          zz          yz          xz          xy
        -0.56550    -0.24197    -0.40395    -0.05432     0.20850    -0.06851
 Feature   EFS_by	Qe
 Feature   mindist	3.856727
END_CFG

BEGIN_CFG
 Size
    2
 Supercell
         4.956852      0.000000      0.000000
         0.000000      4.956852      0.000000
         0.000000      0.000000      4.956852
 AtomData:  id type       cartes_x      cartes_y      cartes_z           fx          fy          fz
             1    0       0.319306      4.789621      4.905391    -0.294810    0.185234    0.060807
             2    0       2.159120      2.645657      2.529887     0.294810   -0.185234   -0.060807
 Energy
        -28.010599534200
 PlusStress:  xx          yy          zz          yz          xz          xy
        -0.11138     0.20128     0.33368     0.02941    -0.04797    -0.14716
 Feature   EFS_by	Qe
 Feature   mindist	3.691141
END_CFG

BEGIN_CFG
 Size
    2
 Supercell
         4.956852      0.000000      0.000000
         0.000000      4.956852      0.000000
         0.000000      0.000000      4.956852
 AtomData:  id type       cartes_x      cartes_y      cartes_z           fx          fy          fz
             1    0       0.184502     -0.148064     -0.073721    -0.181813    0.150518    0.078209
             2    0       2.293924      2.626490      2.552147     0.181813   -0.150518   -0.078209
 Energy
        -28.078704599300
 PlusStress:  xx          yy          zz          yz          xz          xy
         0.00570     0.05837     0.13497     0.03455    -0.04205    -0.08141
 Feature   EFS_by	Qe
 Feature   mindist	3.826954
END_CFG

BEGIN_CFG
 Size
    2
 Supercell
         5.365664      0.000000      0.000000
         0.000000      5.365664      0.000000
         0.000000      0.000000      5.365664
 AtomData:  id type       cartes_x      cartes_y      cartes_z           fx          fy          fz
             1    0       0.105112      0.145867      0.738465    -0.124561   -0.168148   -0.280914
             2    0       2.577720      2.536965      1.944367     0.124561    0.168148    0.280914
 Energy
        -27.766026181700
 PlusStress:  xx          yy          zz          yz          xz          xy
         0.20892     0.16028    -0.82152     0.16949     0.12538     0.06936
 Feature   EFS_by	Qe
 Feature   mindist	3.644906
END_CFG

BEGIN_CFG
 Size
    2
 Supercell
         5.059055      0.000000      0.000000
         0.000000      5.059055      0.000000
         0.000000      0.000000      5.059055
 AtomData:  id type       cartes_x      cartes_y      cartes_z           fx          fy          fz
             1    0       0.472671      4.930084      5.175980    -0.345824    0.153692   -0.140408
             2    0       2.056856      2.658498      2.412602     0.345824   -0.153692    0.140408
 Energy
        -27.923647727100
 PlusStress:  xx          yy          zz          yz          xz          xy
        -0.42561     0.30684     0.32277    -0.05766     0.13565    -0.14849
 Feature   EFS_by	Qe
 Feature   mindist	3.597204
END_CFG

BEGIN_CFG
 Size
    2
 Supercell
         5.059055      0.000000      0.000000
         0.000000      5.059055      0.000000
         0.000000      0.000000      5.059055
 AtomData:  id type       cartes_x      cartes_y      cartes_z           fx          fy          fz
             1    0       0.103211      0.121715      0.436886    -0.119413   -0.139319   -0.327885
             2    0       2.426317      2.407812      2.092641     0.119413    0.139319    0.327885
 Energy
        -27.953451541900
 PlusStress:  xx          yy          zz          yz          xz          xy
         0.25727     0.23599    -0.38994     0.13339     0.11413     0.04636
 Feature   EFS_by	Qe
 Feature   mindist	3.655761
END_CFG

BEGIN_CFG
 Size
    2
 Supercell
         4.854649      0.000000      0.000000
         0.000000      4.854649      0.000000
         0.000000      0.000000      4.854649
 AtomData:  id type       cartes_x      cartes_y      cartes_z           fx          fy          fz
             1    0       0.333903      4.752187      4.916874    -0.329919    0.129397   -0.079937
             2    0       2.093422      2.529786      2.365099     0.329919   -0.129397    0.079937
 Energy
        -28.000281793000
 PlusStress:  xx          yy          zz          yz          xz          xy
        -0.00651     0.49730     0.53837    -0.02269     0.05977    -0.09685
 Feature   EFS_by	Qe
 Feature   mindist	3.652150
END_CFG

BEGIN_CFG
 Size
    2
 Supercell
         5.059055      0.000000      0.000000
         0.000000      5.059055      0.000000
         0.000000      0.000000      5.059055
 AtomData:  id type       cartes_x      cartes_y      cartes_z           fx          fy          fz
             1    0       0.036934      0.093306      0.319501    -0.038110   -0.094453   -0.255202
             2    0       2.492594      2.436221      2.210027     0.038110    0.094453    0.255202
 Energy
        -28.038997880900
 PlusStress:  xx          yy          zz          yz          xz          xy
         0.06622     0.03329    -0.30042     0.08084     0.03257     0.01165
 Feature   EFS_by	Qe
 Feature   mindist	3.885048
END_CFG

BEGIN_CFG
 Size
    2
 Supercell
         4.956852      0.000000      0.000000
         0.000000      4.956852      0.000000
         0.000000      0.000000      4.956852
 AtomData:  id type       cartes_x      cartes_y      cartes_z           fx          fy          fz
             1    0       0.260742      4.968709      0.206518    -0.254043   -0.013707   -0.214302
             2    0       2.217684      2.466569      2.271908     0.254043    0.013707    0.214302
 Energy
        -28.030008327400
 PlusStress:  xx          yy          zz          yz          xz          xy
        -0.02203     0.29443     0.08521     0.00794     0.15085     0.00951
 Feature   EFS_by	Qe
 Feature   mindist	3.757802
END_CFG

BEGIN_CFG
 Size
    2
 Supercell
         5.059055      0.000000      0.000000
         0.000000      5.059055      0.000000
         0.000000      0.000000      5.059055
 AtomData:  id type       cartes_x      cartes_y      cartes_z           fx          fy          fz
             1    0       0.472671      4.930084      5.175980    -0.345824    0.153692   -0.140408
             2    0       2.056856      2.658498      2.412602     0.345824   -0.153692    0.140408
 Energy
        -27.923647727100
 PlusStress:  xx          yy          zz          yz          xz          xy
        -0.42561     0.30684     0.32277    -0.05766     0.13565    -0.14849
 Feature   EFS_by	Qe
 Feature   mindist	3.597204
END_CFG

BEGIN_CFG
 Size
    1
 Supercell
         2.555086      3.066094      3.066094
        -2.555101      2.555106      2.555111
        -2.555116     -2.555121      2.555126
 AtomData:  id type       cartes_x      cartes_y      cartes_z           fx          fy          fz
             1    0       0.000000      0.000000      0.000000     0.000000    0.000000    0.000000
 Energy
        -13.970625454400
 PlusStress:  xx          yy          zz          yz          xz          xy
        -0.13087    -0.14496    -0.11227    -0.08875    -0.10358    -0.07029
 Feature   EFS_by	Qe
 Feature   mindist	4.425574
END_CFG

BEGIN_CFG
 Size
    1
 Supercell
         2.555087      4.088125      4.088131
        -2.555099      2.555106      2.555112
        -2.555118     -2.555118      2.555125
 AtomData:  id type       cartes_x      cartes_y      cartes_z           fx          fy          fz
             1    0       0.000000      0.000000      0.000000     0.000000    0.000000    0.000000
 Energy
        -13.889475250800
 PlusStress:  xx          yy          zz          yz          xz          xy
        -0.30208    -0.23192    -0.21926    -0.05193    -0.23335    -0.01107
 Feature   EFS_by	Qe
 Feature   mindist	4.425573
END_CFG

BEGIN_CFG
 Size
    2
 Supercell
         5.365664      0.000000      0.000000
         0.000000      5.365664      0.000000
         0.000000      0.000000      5.365664
 AtomData:  id type       cartes_x      cartes_y      cartes_z           fx          fy          fz
             1    0       0.622739      2.222375      5.387672    -0.375556    0.395754   -0.032402
             2    0       2.060093      0.460457      2.660824     0.375556   -0.395754    0.032402
 Energy
        -27.665690454400
 PlusStress:  xx          yy          zz          yz          xz          xy
        -0.58252    -0.25105     0.59926    -0.03759     0.03617    -0.44934
 Feature   EFS_by	Qe
 Feature   mindist	3.483345
END_CFG

BEGIN_CFG
 Size
    1
 Supercell
         2.427325      2.427325      2.427325
        -2.427329      2.427329      2.427329
        -2.427329     -2.427329      2.427329
 AtomData:  id type       cartes_x      cartes_y      cartes_z           fx          fy          fz
             1    0       0.000000      0.000000      0.000000     0.000000    0.000000    0.000000
 Energy
        -13.966802118600
 PlusStress:  xx          yy          zz          yz          xz          xy
         0.29598     0.29608     0.29603     0.00005     0.00000    -0.00000
 Feature   EFS_by	Qe
 Feature   mindist	4.204251
END_CFG

BEGIN_CFG
 Size
    2
 Supercell
         5.365664      0.000000      0.000000
         0.000000      5.365664      0.000000
         0.000000      0.000000      5.365664
 AtomData:  id type       cartes_x      cartes_y      cartes_z           fx          fy          fz
             1    0       0.001066      0.283314      0.292690    -0.000774   -0.182207   -0.185757
             2    0       2.681766      2.399518      2.390142     0.000774    0.182207    0.185757
 Energy
        -27.954956059400
 PlusStress:  xx          yy          zz          yz          xz          xy
        -0.31786    -0.51231    -0.52253     0.18339     0.00085     0.00085
 Feature   EFS_by	Qe
 Feature   mindist	4.007964
END_CFG

BEGIN_CFG
 Size
    2
 Supercell
         5.365664      0.000000      0.000000
         0.000000      5.365664      0.000000
         0.000000      0.000000      5.365664
 AtomData:  id type       cartes_x      cartes_y      cartes_z           fx          fy          fz
             1    0       0.200247      0.169450      0.429350    -0.164635   -0.143631   -0.248163
             2    0       2.482585      2.513382      2.253482     0.164635    0.143631    0.248163
 Energy
        -27.900812884300
 PlusStress:  xx          yy          zz          yz          xz          xy
        -0.27970    -0.24580    -0.58082     0.16680     0.19176     0.10737
 Feature   EFS_by	Qe
 Feature   mindist	3.745736
END_CFG

BEGIN_CFG
 Size
    2
 Supercell
         4.803548      0.000000      0.000000
         0.000000      4.803548      0.000000
         0.000000      0.000000      4.803553
 AtomData:  id type       cartes_x      cartes_y      cartes_z           fx          fy          fz
             1    0       0.000000      0.000000      0.000000     0.000000    0.000000    0.000000
             2    0       2.401775      2.401775      2.401791     0.000000    0.000000    0.000000
 Energy
        -27.921971777800
 PlusStress:  xx          yy          zz          yz          xz          xy
         0.72834     0.72834     0.72834     0.00000     0.00000     0.00000
 Feature   EFS_by	Qe
 Feature   mindist	4.159987
END_CFG

BEGIN_CFG
 Size
    2
 Supercell
         4.956852      0.000000      0.000000
         0.000000      4.956852      0.000000
         0.000000      0.000000      4.956852
 AtomData:  id type       cartes_x      cartes_y      cartes_z           fx          fy          fz
             1    0       0.345038      4.904078      0.236218    -0.326582    0.066622   -0.260274
             2    0       2.133388      2.531200      2.242207     0.326582   -0.066622    0.260274
 Energy
        -27.963699485900
 PlusStress:  xx          yy          zz          yz          xz          xy
        -0.08398     0.46195     0.17970    -0.04283     0.21515    -0.05457
 Feature   EFS_by	Qe
 Feature   mindist	3.585072
END_CFG

BEGIN_CFG
 Size
    2
 Supercell
         4.854649      0.000000      0.000000
         0.000000      4.854649      0.000000
         0.000000      0.000000      4.854649
 AtomData:  id type       cartes_x      cartes_y      cartes_z           fx          fy          fz
             1    0       0.333903      4.752187      4.916874    -0.329919    0.129397   -0.079937
             2    0       2.093422      2.529786      2.365099     0.329919   -0.129397    0.079937
 Energy
        -28.000281793000
 PlusStress:  xx          yy          zz          yz          xz          xy
        -0.00651     0.49730     0.53837    -0.02269     0.05977    -0.09685
 Feature   EFS_by	Qe
 Feature   mindist	3.652150
END_CFG

BEGIN_CFG
 Size
    2
 Supercell
         5.365664      0.000000      0.000000
         0.000000      5.365664      0.000000
         0.000000      0.000000      5.365664
 AtomData:  id type       cartes_x      cartes_y      cartes_z           fx          fy          fz
             1    0       5.372310      1.369607      5.359112    -0.010534    0.018237    0.010383
             2    0       2.676186      1.313225      2.689384     0.010534   -0.018237   -0.010383
 Energy
        -27.609014171400
 PlusStress:  xx          yy          zz          yz          xz          xy
         0.75301    -1.15441     0.75315     0.00057    -0.00028    -0.00057
 Feature   EFS_by	Qe
 Feature   mindist	3.775854
END_CFG

BEGIN_CFG
 Size
    2
 Supercell
         5.059055      0.000000      0.000000
         0.000000      5.059055      0.000000
         0.000000      0.000000      5.059055
 AtomData:  id type       cartes_x      cartes_y      cartes_z           fx          fy          fz
             1    0       0.032411      0.462059      5.076710    -0.037857   -0.324358   -0.020659
             2    0       2.497116      2.067468      2.511872     0.037857    0.324358    0.020659
 Energy
        -27.964969441300
 PlusStress:  xx          yy          zz          yz          xz          xy
         0.27427    -0.46056     0.27819     0.01997     0.00214     0.03650
 Feature   EFS_by	Qe
 Feature   mindist	3.856582
END_CFG

BEGIN_CFG
 Size
    2
 Supercell
         5.059055      0.000000      0.000000
         0.000000      5.059055      0.000000
         0.000000      0.000000      5.059055
 AtomData:  id type       cartes_x      cartes_y      cartes_z           fx          fy          fz
             1    0       0.077354      0.017770      0.365118    -0.081741   -0.019062   -0.280839
             2    0       2.452173      2.511757      2.164409     0.081741    0.019062    0.280839
 Energy
        -28.018436549500
 PlusStress:  xx          yy          zz          yz          xz          xy
         0.10153     0.12840    -0.34881     0.01736     0.07442     0.00487
 Feature   EFS_by	Qe
 Feature   mindist	3.885509
END_CFG

BEGIN_CFG
 Size
    2
 Supercell
         5.365664      0.000000      0.000000
         0.000000      5.365664      0.000000
         0.000000      0.000000      5.365664
 AtomData:  id type       cartes_x      cartes_y      cartes_z           fx          fy          fz
             1    0       0.394232      5.347105      0.307064    -0.243080    0.017061   -0.219270
             2    0       2.288600      2.701391      2.375768     0.243080   -0.017061    0.219270
 Energy
        -27.901524462100
 PlusStress:  xx          yy          zz          yz          xz          xy
        -0.53628    -0.15290    -0.41884    -0.01702     0.25219    -0.01915
 Feature   EFS_by	Qe
 Feature   mindist	3.855901
END_CFG

BEGIN_CFG
 Size
    1
 Supercell
         1.916316      1.916319      1.916326
        -1.916329      1.916336      1.916342
        -1.916346     -1.916352      1.916356
 AtomData:  id type       cartes_x      cartes_y      cartes_z           fx          fy          fz
             1    0       0.000000      0.000000      0.000000     0.000000    0.000000    0.000000
 Energy
        -12.934274239300
 PlusStress:  xx          yy          zz          yz          xz          xy
         3.07321     3.07300     3.07303     0.00000    -0.00003     0.00008
 Feature   EFS_by	Qe
 Feature   mindist	3.319164
END_CFG

BEGIN_CFG
 Size
    2
 Supercell
         5.263461      0.000000      0.000000
         0.000000      5.263461      0.000000
         0.000000      0.000000      5.263461
 AtomData:  id type       cartes_x      cartes_y      cartes_z           fx          fy          fz
             1    0       0.311478      5.306523      0.314068    -0.230309   -0.040778   -0.231245
             2    0       2.320253      2.588669      2.317663     0.230309    0.040778    0.231245
 Energy
        -27.949533238300
 PlusStress:  xx          yy          zz          yz          xz          xy
        -0.37849    -0.09037    -0.38224     0.03896     0.22560     0.03869
 Feature   EFS_by	Qe
 Feature   mindist	3.811783
END_CFG

BEGIN_CFG
 Size
    2
 Supercell
         5.365664      0.000000      0.000000
         0.000000      5.365664      0.000000
         0.000000      0.000000      5.365664
 AtomData:  id type       cartes_x      cartes_y      cartes_z           fx          fy          fz
             1    0       0.169911      0.162445      0.397353    -0.134990   -0.129752   -0.228351
             2    0       2.512921      2.520387      2.285480     0.134990    0.129752    0.228351
 Energy
        -27.927033231700
 PlusStress:  xx          yy          zz          yz          xz          xy
        -0.31998    -0.31332    -0.58734     0.14836     0.15432     0.08524
 Feature   EFS_by	Qe
 Feature   mindist	3.822905
END_CFG

BEGIN_CFG
 Size
    2
 Supercell
         5.365664      0.000000      0.000000
         0.000000      5.365664      0.000000
         0.000000      0.000000      5.365664
 AtomData:  id type       cartes_x      cartes_y      cartes_z           fx          fy          fz
             1    0       0.515894      5.224275      0.300052    -0.300026    0.146556   -0.259604
             2    0       2.166938      2.824221      2.382780     0.300026   -0.146556    0.259604
 Energy
        -27.819508392200
 PlusStress:  xx          yy          zz          yz          xz          xy
        -0.58110     0.01816    -0.22311    -0.14396     0.30708    -0.17134
 Feature   EFS_by	Qe
 Feature   mindist	3.581055
END_CFG

BEGIN_CFG
 Size
    2
 Supercell
         4.956852      0.000000      0.000000
         0.000000      4.956852      0.000000
         0.000000      0.000000      4.956852
 AtomData:  id type       cartes_x      cartes_y      cartes_z           fx          fy          fz
             1    0       0.323833      4.884710      0.204840    -0.305952    0.087264   -0.225590
             2    0       2.154593      2.550568      2.273586     0.305952   -0.087264    0.225590
 Energy
        -27.989369210800
 PlusStress:  xx          yy          zz          yz          xz          xy
        -0.08040     0.37763     0.18552    -0.05010     0.18060    -0.06922
 Feature   EFS_by	Qe
 Feature   mindist	3.616575
END_CFG

BEGIN_CFG
 Size
    2
 Supercell
         5.365664      0.000000      0.000000
         0.000000      5.365664      0.000000
         0.000000      0.000000      5.365664
 AtomData:  id type       cartes_x      cartes_y      cartes_z           fx          fy          fz
             1    0       0.132614      0.239440      0.583609    -0.140913   -0.229149   -0.297336
             2    0       2.550218      2.443392      2.099223     0.140913    0.229149    0.297336
 Energy
        -27.811249600500
 PlusStress:  xx          yy          zz          yz          xz          xy
         0.04978    -0.10255    -0.66777     0.26467     0.16169     0.11900
 Feature   EFS_by	Qe
 Feature   mindist	3.605454
END_CFG

BEGIN_CFG
 Size
    2
 Supercell
         5.161258      0.000000      0.000000
         0.000000      5.161258      0.000000
         0.000000      0.000000      5.161258
 AtomData:  id type       cartes_x      cartes_y      cartes_z           fx          fy          fz
             1    0       0.423630      5.160250      0.332292    -0.330348    0.001221   -0.303948
             2    0       2.156999      2.581637      2.248337     0.330348   -0.001221    0.303948
 Energy
        -27.881632122600
 PlusStress:  xx          yy          zz          yz          xz          xy
        -0.33377     0.32127    -0.13936    -0.00114     0.31218    -0.00126
 Feature   EFS_by	Qe
 Feature   mindist	3.650348
END_CFG

BEGIN_CFG
 Size
    2
 Supercell
         4.854649      0.000000      0.000000
         0.000000      4.854649      0.000000
         0.000000      0.000000      4.854649
 AtomData:  id type       cartes_x      cartes_y      cartes_z           fx          fy          fz
             1    0       0.334321      4.723844      4.860013    -0.331509    0.163094   -0.006988
             2    0       2.093004      2.558128      2.421960     0.331509   -0.163094    0.006988
 Energy
        -27.996681726600
 PlusStress:  xx          yy          zz          yz          xz          xy
        -0.00116     0.46652     0.57241    -0.00252     0.00525    -0.12228
 Feature   EFS_by	Qe
 Feature   mindist	3.690966
END_CFG

BEGIN_CFG
 Size
    1
 Supercell
         2.810587      2.810587      2.810587
        -2.810587      2.810592      2.810592
        -2.810592     -2.810592      2.810592
 AtomData:  id type       cartes_x      cartes_y      cartes_z           fx          fy          fz
             1    0       0.000000      0.000000      0.000000     0.000000    0.000000    0.000000
 Energy
        -13.932579446800
 PlusStress:  xx          yy          zz          yz          xz          xy
        -0.36481    -0.36481    -0.36489    -0.00008    -0.00000     0.00000
 Feature   EFS_by	Qe
 Feature   mindist	4.868079
END_CFG

BEGIN_CFG
 Size
    2
 Supercell
         5.263461      0.000000      0.000000
         0.000000      5.263461      0.000000
         0.000000      0.000000      5.263461
 AtomData:  id type       cartes_x      cartes_y      cartes_z           fx          fy          fz
             1    0       4.799425      4.906545      4.972127     0.388310    0.365629    0.332225
             2    0       3.095766      2.988647      2.923065    -0.388310   -0.365629   -0.332225
 Energy
        -27.746248402100
 PlusStress:  xx          yy          zz          yz          xz          xy
        -0.27808    -0.01995     0.14178     0.34757     0.37113     0.40955
 Feature   EFS_by	Qe
 Feature   mindist	3.283206
END_CFG

BEGIN_CFG
 Size
    2
 Supercell
         4.854649      0.000000      0.000000
         0.000000      4.854649      0.000000
         0.000000      0.000000      4.854649
 AtomData:  id type       cartes_x      cartes_y      cartes_z           fx          fy          fz
             1    0       0.155280     -0.140951     -0.066509    -0.171472    0.157325    0.077201
             2    0       2.272044      2.568275      2.493833     0.171472   -0.157325   -0.077201
 Energy
        -28.079812510900
 PlusStress:  xx          yy          zz          yz          xz          xy
         0.22018     0.24203     0.32492     0.03004    -0.03288    -0.06744
 Feature   EFS_by	Qe
 Feature   mindist	3.787793
END_CFG

BEGIN_CFG
 Size
    2
 Supercell
         4.956852      0.000000      0.000000
         0.000000      4.956852      0.000000
         0.000000      0.000000      4.956852
 AtomData:  id type       cartes_x      cartes_y      cartes_z           fx          fy          fz
             1    0       0.319306      4.789621      4.905391    -0.294810    0.185234    0.060807