BEGIN_CFG
 Size
    2
 Supercell
         4.854649      0.000000      0.000000
         0.000000      4.854649      0.000000
         0.000000      0.000000      4.854649
 AtomData:  id type       cartes_x      cartes_y      cartes_z           fx          fy          fz
             1    0       4.645541      0.727225      4.654644     0.466835   -0.508909    0.454573
             2    0       2.636432      1.700100      2.627329    -0.466835    0.508909   -0.454573
 Energy
        -27.532646641000
 PlusStress:  xx          yy          zz          yz          xz          xy
         1.54464    -0.70046     1.58098    -0.34109     0.38595    -0.34939
 Feature   EFS_by	Qe
 Feature   mindist	3.015461
END_CFG

BEGIN_CFG
 Size
    2
 Supercell
         5.161258      0.000000      0.000000
         0.000000      5.161258      0.000000
         0.000000      0.000000      5.161258
 AtomData:  id type       cartes_x      cartes_y      cartes_z           fx          fy          fz
             1    0       0.511535      5.018013      0.292109    -0.370214    0.183327   -0.315120
             2    0       2.069094      2.723874      2.288520     0.370214   -0.183327    0.315120
 Energy
        -27.819258999900
 PlusStress:  xx          yy          zz          yz          xz          xy
        -0.42794     0.39613     0.08938    -0.15817     0.32859    -0.18973
 Feature   EFS_by	Qe
 Feature   mindist	3.416829
END_CFG

BEGIN_CFG
 Size
    1
 Supercell
         2.555087      4.088125      4.088131
        -2.555099      2.555106      2.555112
        -2.555118     -2.555118      2.555125
 AtomData:  id type       cartes_x      cartes_y      cartes_z           fx          fy          fz
             1    0       0.000000      0.000000      0.000000     0.000000    0.000000    0.000000
 Energy
        -13.889475250800
 PlusStress:  xx          yy          zz          yz          xz          xy
        -0.30208    -0.23192    -0.21926    -0.05193    -0.23335    -0.01107
 Feature   EFS_by	Qe
 Feature   mindist	4.425573
END_CFG

BEGIN_CFG
 Size
    2
 Supercell
         5.416770      0.000000      0.000000
         0.000000      5.416770      0.000000
         0.000000      0.000000      5.416775
 AtomData:  id type       cartes_x      cartes_y      cartes_z           fx          fy          fz
             1    0       0.000000      0.000000      0.000000     0.000000    0.000000    0.000000
             2    0       2.708385      2.708386      2.708403     0.000000    0.000000    0.000000
 Energy
        -27.940525045000
 PlusStress:  xx          yy          zz          yz          xz          xy
        -0.49163    -0.49163    -0.49163     0.00000     0.00000     0.00000
 Feature   EFS_by	Qe
 Feature   mindist	4.691052
END_CFG

BEGIN_CFG
 Size
    1
 Supercell
         2.427325      2.427325      2.427325
        -2.427329      2.427329      2.427329
        -2.427329     -2.427329      2.427329
 AtomData:  id type       cartes_x      cartes_y      cartes_z           fx          fy          fz
             1    0       0.000000      0.000000      0.000000     0.000000    0.000000    0.000000
 Energy
        -13.966802118600
 PlusStress:  xx          yy          zz          yz          xz          xy
         0.29598     0.29608     0.29603     0.00005     0.00000    -0.00000
 Feature   EFS_by	Qe
 Feature   mindist	4.204251
END_CFG

BEGIN_CFG
 Size
    2
 Supercell
         5.212364      0.000000      0.000000
         0.000000      5.212364      0.000000
         0.000000      0.000000      5.212370
 AtomData:  id type       cartes_x      cartes_y      cartes_z           fx          fy          fz
             1    0       0.000000      0.000000      0.000000     0.000000    0.000000    0.000000
             2    0       2.606183      2.606183      2.606200     0.000000    0.000000    0.000000
 Energy
        -27.980363602600
 PlusStress:  xx          yy          zz          yz          xz          xy
        -0.18138    -0.18138    -0.18138     0.00000     0.00000     0.00000
 Feature   EFS_by	Qe
 Feature   mindist	4.514032
END_CFG

BEGIN_CFG
 Size
    2
 Supercell
         4.854649      0.000000      0.000000
         0.000000      4.854649      0.000000
         0.000000      0.000000      4.854649
 AtomData:  id type       cartes_x      cartes_y      cartes_z           fx          fy          fz
             1    0       4.398726      4.560796      4.466618     0.632452    0.568676    0.621575
             2    0       2.883247      2.721177      2.815355    -0.632452   -0.568676   -0.621575
 Energy
        -27.553554237400
 PlusStress:  xx          yy          zz          yz          xz          xy
         0.37114     1.14587     0.69532     0.54373     0.58176     0.54384
 Feature   EFS_by	Qe
 Feature   mindist	2.899577
END_CFG

BEGIN_CFG
 Size
    1
 Supercell
         2.171817      2.171817      2.171817
        -2.171821      2.171821      2.171821
        -2.171821     -2.171821      2.171821
 AtomData:  id type       cartes_x      cartes_y      cartes_z           fx          fy          fz
             1    0       0.000000      0.000000      0.000000     0.000000    0.000000    0.000000
 Energy
        -13.722442783600
 PlusStress:  xx          yy          zz          yz          xz          xy
         1.25686     1.25705     1.25693     0.00008     0.00004    -0.00000
 Feature   EFS_by	Qe
 Feature   mindist	3.761698
END_CFG

BEGIN_CFG
 Size
    2
 Supercell
         4.956852      0.000000      0.000000
         0.000000      4.956852      0.000000
         0.000000      0.000000      4.956852
 AtomData:  id type       cartes_x      cartes_y      cartes_z           fx          fy          fz
             1    0       4.799904      0.734792      0.271223     0.357969   -0.478369   -0.500834
             2    0       2.635374      1.743634      2.207203    -0.357969    0.478369    0.500834
 Energy
        -27.567039656000
 PlusStress:  xx          yy          zz          yz          xz          xy
         1.48871    -0.72607     1.06691     0.39317    -0.34576    -0.28694
 Feature   EFS_by	Qe
 Feature   mindist	3.074243
END_CFG

BEGIN_CFG
 Size
    1
 Supercell
         2.299571      2.299571      2.299571
        -2.299575      2.299575      2.299575
        -2.299575     -2.299575      2.299575
 AtomData:  id type       cartes_x      cartes_y      cartes_z           fx          fy          fz
             1    0       0.000000      0.000000      0.000000     0.000000    0.000000    0.000000
 Energy
        -13.887733586000
 PlusStress:  xx          yy          zz          yz          xz          xy
         0.69781     0.69768     0.69786     0.00004    -0.00004     0.00004
 Feature   EFS_by	Qe
 Feature   mindist	3.982974
END_CFG

BEGIN_CFG
 Size
    1
 Supercell
         3.193853      3.193858      3.193864
        -3.193869      3.193875      3.193880
        -3.193886     -3.193891      3.193897
 AtomData:  id type       cartes_x      cartes_y      cartes_z           fx          fy          fz
             1    0       0.000000      0.000000      0.000000     0.000000    0.000000    0.000000
 Energy
        -13.737094482300
 PlusStress:  xx          yy          zz          yz          xz          xy
        -0.61299    -0.61299    -0.61299    -0.00000     0.00000     0.00012
 Feature   EFS_by	Qe
 Feature   mindist	5.531924
END_CFG

BEGIN_CFG
 Size
    2
 Supercell
         5.161258      0.000000      0.000000
         0.000000      5.161258      0.000000
         0.000000      0.000000      5.161258
 AtomData:  id type       cartes_x      cartes_y      cartes_z           fx          fy          fz
             1    0       0.467548      4.716702      5.058469    -0.408422    0.406561    0.152485
             2    0       2.113081      3.025185      2.683418     0.408422   -0.406561   -0.152485
 Energy
        -27.755560410500
 PlusStress:  xx          yy          zz          yz          xz          xy
        -0.23404    -0.17433     0.64557     0.15868    -0.15956    -0.42781
 Feature   EFS_by	Qe
 Feature   mindist	3.348115
END_CFG

BEGIN_CFG
 Size
    4
 Supercell
         4.854649      0.000000      0.000000
         0.000000      4.854649      0.000000
         0.000000      0.000000      9.709298
 AtomData:  id type       cartes_x      cartes_y      cartes_z           fx          fy          fz
             1    0       2.501255      1.874488      1.502807     0.037717   -0.033200    0.556867
             2    0       0.404731      0.306780      5.716683    -0.230105    0.210456   -0.699771
             3    0       4.826810      4.497549      9.160845    -0.500527    0.490791    0.662471
             4    0       1.976501      3.030480      7.892909     0.692915   -0.668047   -0.519566
 Energy
        -55.028637232100
 PlusStress:  xx          yy          zz          yz          xz          xy
         2.15497     1.46417     2.82791    -0.17123    -0.10820    -0.58050
 Feature   EFS_by	Qe
 Feature   mindist	2.788786
END_CFG

BEGIN_CFG
 Size
    1
 Supercell
         2.555084      2.555089      2.555093
        -2.555102      2.555106      2.555111
        -2.555115     -2.555120      2.555129
 AtomData:  id type       cartes_x      cartes_y      cartes_z           fx          fy          fz
             1    0       0.000000      0.000000      0.000000     0.000000    0.000000    0.000000
 Energy
        -13.988890825100
 PlusStress:  xx          yy          zz          yz          xz          xy
         0.00447     0.00453     0.00447     0.00000     0.00000     0.00000
 Feature   EFS_by	Qe
 Feature   mindist	4.425543
END_CFG

BEGIN_CFG
 Size
    2
 Supercell
         4.956852      0.000000      0.000000
         0.000000      4.956852      0.000000
         0.000000      0.000000      4.956852
 AtomData:  id type       cartes_x      cartes_y      cartes_z           fx          fy          fz
             1    0       4.952547      4.968833      0.475883     0.005633   -0.015646   -0.364831
             2    0       2.482731      2.466445      2.002543    -0.005633    0.015646    0.364831
 Energy
        -27.942473244200
 PlusStress:  xx          yy          zz          yz          xz          xy
         0.53430     0.53351    -0.38445     0.01409    -0.00503    -0.00022
 Feature   EFS_by	Qe
 Feature   mindist	3.801983
END_CFG

BEGIN_CFG
 Size
    1
 Supercell
         2.555086      3.066094      3.066094
        -2.555101      2.555106      2.555111
        -2.555116     -2.555121      2.555126
 AtomData:  id type       cartes_x      cartes_y      cartes_z           fx          fy          fz
             1    0       0.000000      0.000000      0.000000     0.000000    0.000000    0.000000
 Energy
        -13.970625454400
 PlusStress:  xx          yy          zz          yz          xz          xy
        -0.13087    -0.14496    -0.11227    -0.08875    -0.10358    -0.07029
 Feature   EFS_by	Qe
 Feature   mindist	4.425574
END_CFG

BEGIN_CFG
 Size
    2
 Supercell
         5.007954      0.000000      0.000000
         0.000000      5.007954      0.000000
         0.000000      0.000000      5.007959
 AtomData:  id type       cartes_x      cartes_y      cartes_z           fx          fy          fz
             1    0       0.000000      0.000000      0.000000     0.000000    0.000000    0.000000
             2    0       2.503977      2.503978      2.503994     0.000000    0.000000    0.000000
 Energy
        -27.979489300800
 PlusStress:  xx          yy          zz          yz          xz          xy
         0.21634     0.21634     0.21634     0.00000     0.00000     0.00000
 Feature   EFS_by	Qe
 Feature   mindist	4.337007
END_CFG

BEGIN_CFG
 Size
    1
 Supercell
         2.555083      5.110166      5.110174
        -2.555099      2.555106      2.555114
        -2.555114     -2.555122      2.555129
 AtomData:  id type       cartes_x      cartes_y      cartes_z           fx          fy          fz
             1    0       0.000000      0.000000      0.000000     0.000000    0.000000    0.000000
 Energy
        -13.814578087700
 PlusStress:  xx          yy          zz          yz          xz          xy
        -0.27899    -0.22707    -0.24325     0.00009    -0.26438     0.00000
 Feature   EFS_by	Qe
 Feature   mindist	4.425574
END_CFG

BEGIN_CFG
 Size
    1
 Supercell
         2.044064      2.044064      2.044064
        -2.044067      2.044067      2.044067
        -2.044067     -2.044067      2.044067
 AtomData:  id type       cartes_x      cartes_y      cartes_z           fx          fy          fz
             1    0       0.000000      0.000000      0.000000     0.000000    0.000000    0.000000
 Energy
        -13.426178274100
 PlusStress:  xx          yy          zz          yz          xz          xy
         2.03698     2.03698     2.03695     0.00000     0.00006     0.00006
 Feature   EFS_by	Qe
 Feature   mindist	3.540422
END_CFG

BEGIN_CFG
 Size
    2
 Supercell
         5.161258      0.000000      0.000000
         0.000000      5.161258      0.000000
         0.000000      0.000000      5.161258
 AtomData:  id type       cartes_x      cartes_y      cartes_z           fx          fy          fz
             1    0       0.473828      5.150851      0.370741    -0.368221    0.013964   -0.349853
             2    0       2.106801      2.591036      2.209888     0.368221   -0.013964    0.349853
 Energy
        -27.821297404800
 PlusStress:  xx          yy          zz          yz          xz          xy
        -0.35119     0.50078    -0.10945    -0.01351     0.36545    -0.01439
 Feature   EFS_by	Qe
 Feature   mindist	3.549890
END_CFG

BEGIN_CFG
 Size
    1
 Supercell
         2.555087      4.088125      4.088131
        -2.555099      2.555106      2.555112
        -2.555118     -2.555118      2.555125
 AtomData:  id type       cartes_x      cartes_y      cartes_z           fx          fy          fz
             1    0       0.000000      0.000000      0.000000     0.000000    0.000000    0.000000
 Energy
        -13.889475250800
 PlusStress:  xx          yy          zz          yz          xz          xy
        -0.30208    -0.23192    -0.21926    -0.05193    -0.23335    -0.01107
 Feature   EFS_by	Qe
 Feature   mindist	4.425573
END_CFG

BEGIN_CFG
 Size
    2
 Supercell
         5.621175      0.000000      0.000000
         0.000000      5.621175      0.000000
         0.000000      0.000000      5.621180
 AtomData:  id type       cartes_x      cartes_y      cartes_z           fx          fy          fz
             1    0       0.000000      0.000000      0.000000     0.000000    0.000000    0.000000
             2    0       2.810588      2.810589      2.810607     0.000000    0.000000    0.000000
 Energy
        -27.871577107300
 PlusStress:  xx          yy          zz          yz          xz          xy
        -0.73386    -0.73386    -0.73386     0.00000     0.00000     0.00000
 Feature   EFS_by	Qe
 Feature   mindist	4.868071
END_CFG

BEGIN_CFG
 Size
    2
 Supercell
         5.161258      0.000000      0.000000
         0.000000      5.161258      0.000000
         0.000000      0.000000      5.161258
 AtomData:  id type       cartes_x      cartes_y      cartes_z           fx          fy          fz
             1    0       0.069953      0.025882      0.356911    -0.065613   -0.024501   -0.244718
             2    0       2.510676      2.554747      2.223718     0.065613    0.024501    0.244718
 Energy
        -28.016841009800
 PlusStress:  xx          yy          zz          yz          xz          xy
        -0.09152    -0.07498    -0.44448     0.02373     0.06362     0.00619
 Feature   EFS_by	Qe
 Feature   mindist	3.979605
END_CFG

BEGIN_CFG
 Size
    2
 Supercell
         4.956852      0.000000      0.000000
         0.000000      4.956852      0.000000
         0.000000      0.000000      4.956852
 AtomData:  id type       cartes_x      cartes_y      cartes_z           fx          fy          fz
             1    0       0.350335      4.956520      4.957951    -0.301038    0.000388   -0.001281
             2    0       2.128091      2.478758      2.477327     0.301038   -0.000388    0.001281
 Energy
        -28.026956570500
 PlusStress:  xx          yy          zz          yz          xz          xy
        -0.21358     0.30282     0.30282     0.00000     0.00112    -0.00034
 Feature   EFS_by	Qe
 Feature   mindist	3.928286
END_CFG

BEGIN_CFG
 Size
    2
 Supercell
         4.956852      0.000000      0.000000
         0.000000      4.956852      0.000000
         0.000000      0.000000      4.956852
 AtomData:  id type       cartes_x      cartes_y      cartes_z           fx          fy          fz
             1    0       4.799904      0.734792      0.271223     0.357969   -0.478369   -0.500834
             2    0       2.635374      1.743634      2.207203    -0.357969    0.478369    0.500834
 Energy
        -27.567039656000
 PlusStress:  xx          yy          zz          yz          xz          xy
         1.48871    -0.72607     1.06691     0.39317    -0.34576    -0.28694
 Feature   EFS_by	Qe
 Feature   mindist	3.074243
END_CFG

BEGIN_CFG
 Size
    1
 Supercell
         1.916316      1.916319      1.916326
        -1.916329      1.916336      1.916342
        -1.916346     -1.916352      1.916356
 AtomData:  id type       cartes_x      cartes_y      cartes_z           fx          fy          fz
             1    0       0.000000      0.000000      0.000000     0.000000    0.000000    0.000000
 Energy
        -12.934274239300
 PlusStress:  xx          yy          zz          yz          xz          xy
         3.07321     3.07300     3.07303     0.00000    -0.00003     0.00008
 Feature   EFS_by	Qe
 Feature   mindist	3.319164
END_CFG

BEGIN_CFG
 Size
    4
 Supercell
         5.365664      0.000000      0.000000
         0.000000      5.365664      0.000000
         0.000000      0.000000     10.731328
 AtomData:  id type       cartes_x      cartes_y      cartes_z           fx          fy          fz
             1    0       5.154591      5.368617      2.799898     0.325224   -0.028585    0.356987
             2    0       2.949727      2.664314      2.736529    -0.329560    0.035028    0.357832
             3    0       2.457638      5.393877     10.701611     0.240779   -0.048179   -0.361808
             4    0       0.169373      2.670184     10.590281    -0.236442    0.041736   -0.353011
 Energy
        -55.056087670200
 PlusStress:  xx          yy          zz          yz          xz          xy
         2.38172     3.03218     1.74771     0.01135     0.03574    -0.03376
 Feature   EFS_by	Qe
 Feature   mindist	3.456629
END_CFG

BEGIN_CFG
 Size
    2
 Supercell
         5.161258      0.000000      0.000000
         0.000000      5.161258      0.000000
         0.000000      0.000000      5.161258
 AtomData:  id type       cartes_x      cartes_y      cartes_z           fx          fy          fz
             1    0       0.542395      0.377284      4.955559    -0.447812   -0.436911    0.314926
             2    0       2.038234      2.203345      2.786329     0.447812    0.436911   -0.314926
 Energy
        -27.700267146300
 PlusStress:  xx          yy          zz          yz          xz          xy
        -0.33225     0.14075     0.64254    -0.32771    -0.33427     0.46202
 Feature   EFS_by	Qe
 Feature   mindist	3.205869
END_CFG

BEGIN_CFG
 Size
    2
 Supercell
         4.854649      0.000000      0.000000
         0.000000      4.854649      0.000000
         0.000000      0.000000      4.854649
 AtomData:  id type       cartes_x      cartes_y      cartes_z           fx          fy          fz
             1    0       4.852941      3.887975     -0.002427     0.003650    0.259643    0.005205
             2    0       2.429032      3.393998      2.429751    -0.003650   -0.259643   -0.005205
 Energy
        -27.537439790600
 PlusStress:  xx          yy          zz          yz          xz          xy
         1.83110    -1.26479     1.83121     0.00200     0.00011     0.00137
 Feature   EFS_by	Qe
 Feature   mindist	3.462328
END_CFG

BEGIN_CFG
 Size
    4
 Supercell
         5.365664      0.000000      0.000000
         0.000000      5.365664      0.000000
         0.000000      0.000000     10.731328
 AtomData:  id type       cartes_x      cartes_y      cartes_z           fx          fy          fz
             1    0       5.339710      5.320238      2.997788    -0.011406    0.152204    0.081872
             2    0       2.661571      2.815931      3.026993     0.018887   -0.167492    0.090438
             3    0       2.617409      5.270301     10.409824     0.144687    0.114199   -0.088844
             4    0       0.112638      2.690524     10.393715    -0.152168   -0.098910   -0.083466
 Energy
        -55.358904953600
 PlusStress:  xx          yy          zz          yz          xz          xy
         2.02344     2.00358     0.04113    -0.05361     0.02752     0.02979
 Feature   EFS_by	Qe
 Feature   mindist	3.595745
END_CFG

BEGIN_CFG
 Size
    2
 Supercell
         4.854649      0.000000      0.000000
         0.000000      4.854649      0.000000
         0.000000      0.000000      4.854649
 AtomData:  id type       cartes_x      cartes_y      cartes_z           fx          fy          fz
             1    0       0.479013      0.493662      4.495066    -0.676672   -0.675988    0.640325
             2    0       1.948312      1.933663      2.786907     0.676672    0.675988   -0.640325
 Energy
        -27.302784444100
 PlusStress:  xx          yy          zz          yz          xz          xy
         0.48879     0.41211     1.13642    -0.55529    -0.55623     0.58428
 Feature   EFS_by	Qe
 Feature   mindist	2.673995
END_CFG

BEGIN_CFG
 Size
    2
 Supercell
         5.263461      0.000000      0.000000
         0.000000      5.263461      0.000000
         0.000000      0.000000      5.263461
 AtomData:  id type       cartes_x      cartes_y      cartes_z           fx          fy          fz
             1    0       4.534264      4.937655      2.092286     0.607383    0.671176    0.716911
             2    0       3.360928      2.957536      0.539444    -0.607383   -0.671176   -0.716911
 Energy
        -27.227237881200
 PlusStress:  xx          yy          zz          yz          xz          xy
        -0.45802     1.26307     0.24193     0.76877     0.69781     0.65189
 Feature   EFS_by	Qe
 Feature   mindist	2.776491
END_CFG

BEGIN_CFG
 Size
    2
 Supercell
         5.365664      0.000000      0.000000
         0.000000      5.365664      0.000000
         0.000000      0.000000      5.365664
 AtomData:  id type       cartes_x      cartes_y      cartes_z           fx          fy          fz
             1    0       5.377298      0.012313      3.886253    -0.018130   -0.019181   -0.087635
             2    0       2.671198      2.670519      4.162244     0.018130    0.019181    0.087635
 Energy
        -27.620393156700
 PlusStress:  xx          yy          zz          yz          xz          xy
         0.71656     0.71642    -1.13129     0.00482     0.00454     0.00085
 Feature   EFS_by	Qe
 Feature   mindist	3.770346
END_CFG

BEGIN_CFG
 Size
    1
 Supercell
         2.938341      2.938341      2.938341
        -2.938341      2.938346      2.938346
        -2.938346     -2.938346      2.938346
 AtomData:  id type       cartes_x      cartes_y      cartes_z           fx          fy          fz
             1    0       0.000000      0.000000      0.000000     0.000000    0.000000    0.000000
 Energy
        -13.875878673600
 PlusStress:  xx          yy          zz          yz          xz          xy
        -0.47806    -0.47806    -0.47797     0.00000     0.00000    -0.00000
 Feature   EFS_by	Qe
 Feature   mindist	5.089356
END_CFG

BEGIN_CFG
 Size
    2
 Supercell
         4.854649      0.000000      0.000000
         0.000000      4.854649      0.000000
         0.000000      0.000000      4.854649
 AtomData:  id type       cartes_x      cartes_y      cartes_z           fx          fy          fz
             1    0       0.167166     -0.049176      0.034300    -0.178393    0.056047   -0.039162
             2    0       2.260158      2.476500      2.393025     0.178393   -0.056047    0.039162
 Energy
        -28.098943067700
 PlusStress:  xx          yy          zz          yz          xz          xy
         0.15789     0.28867     0.29550    -0.00557     0.01796    -0.02563
 Feature   EFS_by	Qe
 Feature   mindist	3.920244
END_CFG

BEGIN_CFG
 Size
    2
 Supercell
         5.365664      0.000000      0.000000
         0.000000      5.365664      0.000000
         0.000000      0.000000      5.365664
 AtomData:  id type       cartes_x      cartes_y      cartes_z           fx          fy          fz
             1    0       4.390100      5.115275      4.875469     0.396780    0.624750    0.751334
             2    0       3.658396      2.933221      3.173028    -0.396780   -0.624750   -0.751334
 Energy
        -27.207123360700
 PlusStress:  xx          yy          zz          yz          xz          xy
        -0.98193     1.64984     0.48395     0.78875     0.49827     0.41388
 Feature   EFS_by	Qe
 Feature   mindist	2.862700
END_CFG

BEGIN_CFG
 Size
    2
 Supercell
         5.263461      0.000000      0.000000
         0.000000      5.263461      0.000000
         0.000000      0.000000      5.263461
 AtomData:  id type       cartes_x      cartes_y      cartes_z           fx          fy          fz
             1    0       4.528477      4.918146      2.068463     0.616702    0.689539    0.722550
             2    0       3.366714      2.977045      0.563267    -0.616702   -0.689539   -0.722550
 Energy
        -27.159265471600
 PlusStress:  xx          yy          zz          yz          xz          xy
        -0.45762     1.25075     0.18556     0.76676     0.69259     0.65724
 Feature   EFS_by	Qe
 Feature   mindist	2.717201
END_CFG

BEGIN_CFG
 Size
    2
 Supercell
         4.854649      0.000000      0.000000
         0.000000      4.854649      0.000000
         0.000000      0.000000      4.854649
 AtomData:  id type       cartes_x      cartes_y      cartes_z           fx          fy          fz
             1    0       0.494097      0.512431      4.471528    -0.675778   -0.674264    0.646928
             2    0       1.933227      1.914893      2.810445     0.675778    0.674264   -0.646928
 Energy
        -27.226711477000
 PlusStress:  xx          yy          zz          yz          xz          xy
         0.46032     0.36305     1.07465    -0.53648    -0.53753     0.56212
 Feature   EFS_by	Qe
 Feature   mindist	2.607142
END_CFG

BEGIN_CFG
 Size
    2
 Supercell
         4.599143      0.000000      0.000000
         0.000000      4.599143      0.000000
         0.000000      0.000000      4.599148
 AtomData:  id type       cartes_x      cartes_y      cartes_z           fx          fy          fz
             1    0       0.000000      0.000000      0.000000     0.000000    0.000000    0.000000
             2    0       2.299572      2.299573      2.299588     0.000000    0.000000    0.000000
 Energy
        -27.785832669300
 PlusStress:  xx          yy          zz          yz          xz          xy
         1.39098     1.39098     1.39098     0.00000     0.00000     0.00000
 Feature   EFS_by	Qe
 Feature   mindist	3.982967
END_CFG

BEGIN_CFG
 Size
    2
 Supercell
         4.854649      0.000000      0.000000
         0.000000      4.854649      0.000000
         0.000000      0.000000      4.854649
 AtomData:  id type       cartes_x      cartes_y      cartes_z           fx          fy          fz
             1    0       0.268091      4.873479      0.213354    -0.289686   -0.024333   -0.245806
             2    0       2.159233      2.408494      2.213970     0.289686    0.024333    0.245806
 Energy
        -28.003506750400
 PlusStress:  xx          yy          zz          yz          xz          xy
         0.16072     0.55235     0.29151     0.01345     0.16241     0.01586
 Feature   EFS_by	Qe
 Feature   mindist	3.645459
END_CFG

BEGIN_CFG
 Size
    2
 Supercell
         4.854649      0.000000      0.000000
         0.000000      4.854649      0.000000
         0.000000      0.000000      4.854649
 AtomData:  id type       cartes_x      cartes_y      cartes_z           fx          fy          fz
             1    0       4.411109      0.376395      0.003169     0.481097   -0.462837   -0.006297
             2    0       2.870864      2.050930      2.424155    -0.481097    0.462837    0.006297
 Energy
        -27.754990876200
 PlusStress:  xx          yy          zz          yz          xz          xy
         0.06114     0.31441     1.27140     0.00578    -0.00588    -0.39393
 Feature   EFS_by	Qe
 Feature   mindist	3.322287
END_CFG

BEGIN_CFG
 Size
    2
 Supercell
         4.956852      0.000000      0.000000
         0.000000      4.956852      0.000000
         0.000000      0.000000      4.956852
 AtomData:  id type       cartes_x      cartes_y      cartes_z           fx          fy          fz
             1    0       0.493087      0.541397      4.548718    -0.684540   -0.677252    0.669075
             2    0       1.985338      1.937029      2.886560     0.684540    0.677252   -0.669075
 Energy
        -27.231410747300
 PlusStress:  xx          yy          zz          yz          xz          xy
         0.44540     0.20397     0.89526    -0.60173    -0.60754     0.61682
 Feature   EFS_by	Qe
 Feature   mindist	2.633890
END_CFG

BEGIN_CFG
 Size
    1
 Supercell
         2.810587      2.810587      2.810587
        -2.810587      2.810592      2.810592
        -2.810592     -2.810592      2.810592
 AtomData:  id type       cartes_x      cartes_y      cartes_z           fx          fy          fz
             1    0       0.000000      0.000000      0.000000     0.000000    0.000000    0.000000
 Energy
        -13.932579446800
 PlusStress:  xx          yy          zz          yz          xz          xy