BEGIN_CFG
 Size
    2
 Supercell
    5.263461124873246     0.0      0.0 
    0.0     5.263461124873246      0.0 
    0.0     0.0      5.263461124873246 
 AtomData:  id type    cartes_x    cartes_y    cartes_z    fx    fy    fz
    1    0   0.05419785920281982    -0.024978807460310965    -0.014331878296917362    -0.035786930481284555    0.01655044940340665    0.009551906072392233
    2    0   2.577533229579916    2.6567098962430467    2.646061914387428    0.035786930481284555    -0.01655044940340665    -0.009551906072392233
 Energy
    -28.0858942557
 PlusStress:  xx          yy          zz          yz          xz          xy
    -0.49537405018130337   -0.4900186550442082    -0.4893492306520713    0.0009371941489916551    -0.002008273176410689    -0.003614891717539241
 Feature EFS_by Qe
END_CFG

BEGIN_CFG
 Size
    2
 Supercell
    5.365663765435493     0.0      0.0 
    0.0     5.365663765435493      0.0 
    0.0     0.0      5.365663765435493 
 AtomData:  id type    cartes_x    cartes_y    cartes_z    fx    fy    fz
    1    0   5.022783900098375    5.38690696484923    5.156868618198349    0.19822589798575205    -0.016681061453816468    0.14587591969462366
    2    0   3.025712821187618    2.661589756436764    2.891628103087644    -0.19822589798575205    0.016681061453816468    -0.14587591969462366
 Energy
    -27.9598595512
 PlusStress:  xx          yy          zz          yz          xz          xy
    -0.5890464788681934   -0.33501752542419283    -0.44721010061917016    -0.01319078317715916    0.15914041639540402    -0.018013220037625947
 Feature EFS_by Qe
END_CFG

BEGIN_CFG
 Size
    2
 Supercell
    5.365663765435493     0.0      0.0 
    0.0     5.365663765435493      0.0 
    0.0     0.0      5.365663765435493 
 AtomData:  id type    cartes_x    cartes_y    cartes_z    fx    fy    fz
    1    0   0.08460095715599796    0.07485315579333131    0.164188238089573    -0.05183318651686904    -0.04608831318152054    -0.09516090602663713
    2    0   2.5982309255617486    2.6079787269244155    2.5186436446281735    0.05183318651686904    0.04608831318152054    0.09516090602663713
 Energy
    -28.0326674241
 PlusStress:  xx          yy          zz          yz          xz          xy
    -0.5708914224523185   -0.567912858509089    -0.6090454082013056    0.030352984945290967    0.03404073077976557    0.01645301987688669
 Feature EFS_by Qe
END_CFG

BEGIN_CFG
 Size
    2
 Supercell
    4.8546489750926245     0.0      0.0 
    0.0     4.8546489750926245      0.0 
    0.0     0.0      4.8546489750926245 
 AtomData:  id type    cartes_x    cartes_y    cartes_z    fx    fy    fz
    1    0   0.008250961398067424    -0.004177910907964713    -0.0011321041409916    -0.009108133633401384    0.004562680012938348    0.00126883950545761
    2    0   2.4190730406833474    2.4315019129893796    2.4284570771522014    0.009108133633401384    -0.004562680012938348    -0.00126883950545761
 Energy
    -28.1330239681
 PlusStress:  xx          yy          zz          yz          xz          xy
    0.21009744156982454   0.21030753901139437    0.21072773389453403    0.0    -0.00010504872078491228    -0.00010504872078491228
 Feature EFS_by Qe
END_CFG

BEGIN_CFG
 Size
    4
 Supercell
    4.8546489750926245     0.0      0.0 
    0.0     4.8546489750926245      0.0 
    0.0     0.0      9.709297950185249 
 AtomData:  id type    cartes_x    cartes_y    cartes_z    fx    fy    fz
    1    0   2.4301139688474005    2.1016367680350934    2.376825943442501    0.0025741886785494612    0.15724405317665166    0.008827112036751907
    2    0   4.751944021375565    4.64048079544254    0.06354686961906494    0.048152652064867886    0.07420949901129169    -0.02799623020674128
    3    0   0.12694615790928707    0.24783517029235108    4.870561058038286    -0.07411231130449068    -0.11298662269388769    0.012125323419935337
    4    0   2.4002928311232012    2.7193427890907764    7.253012083248227    0.023385470561073336    -0.11846692949405566    0.007043794750054039
 Energy
    -56.18289824
 PlusStress:  xx          yy          zz          yz          xz          xy
    0.6029796573053964   0.2685045303262357    0.5536067585364877    0.0111351644032007    -0.003571656506687017    0.029413641819775436
 Feature EFS_by Qe
END_CFG

BEGIN_CFG
 Size
    2
 Supercell
    4.8546489750926245     0.0      0.0 
    0.0     4.8546489750926245      0.0 
    0.0     0.0      4.8546489750926245 
 AtomData:  id type    cartes_x    cartes_y    cartes_z    fx    fy    fz
    1    0   0.0953011285651458    -0.024494131403829836    0.004180823697349768    -0.10327865064787586    0.027135939024317542    -0.0046205298384151385
    2    0   2.332023844446064    2.4518181334852445    2.423143178384065    0.10327865064787586    -0.027135939024317542    0.0046205298384151385
 Energy
    -28.1225601017
 PlusStress:  xx          yy          zz          yz          xz          xy
    0.1918189641532498   0.2353091345582035    0.23867069362332066    -0.0004201948831396491    0.0012605846494189471    -0.007458459175728771
 Feature EFS_by Qe
END_CFG

BEGIN_CFG
 Size
    2
 Supercell
    4.8546489750926245     0.0      0.0 
    0.0     4.8546489750926245      0.0 
    0.0     0.0      4.8546489750926245 
 AtomData:  id type    cartes_x    cartes_y    cartes_z    fx    fy    fz
    1    0   0.12000400987490462    -0.11530713699150251    -0.04244176866474727    -0.13222336088210104    0.12741899715383745    0.04823569870321901
    2    0   2.30731999220651    2.542632110002712    2.4697672271408546    0.13222336088210104    -0.12741899715383745    -0.04823569870321901
 Energy
    -28.1007101751
 PlusStress:  xx          yy          zz          yz          xz          xy
    0.22081241108988559   0.2268001881746256    0.28730825134673504    0.01575730811773684    -0.016387600442446314    -0.04338512168416877
 Feature EFS_by Qe
END_CFG

BEGIN_CFG
 Size
    2
 Supercell
    4.8546489750926245     0.0      0.0 
    0.0     4.8546489750926245      0.0 
    0.0     0.0      4.8546489750926245 
 AtomData:  id type    cartes_x    cartes_y    cartes_z    fx    fy    fz
    1    0   -0.018753994455680316    0.09052221211406462    0.1928188898523189    0.021898601491152088    -0.10359309658813413    -0.2050583480400642
    2    0   2.446077996537095    2.336802760897145    2.2345051122290958    -0.021898601491152088    0.10359309658813413    0.2050583480400642
 Energy
    -28.0835844172
 PlusStress:  xx          yy          zz          yz          xz          xy
    0.33762658860270806   0.2943465156393242    0.14654296549495263    0.053469798879520344    -0.011240213123985612    -0.00556758220160035
 Feature EFS_by Qe
END_CFG

BEGIN_CFG
 Size
    4
 Supercell
    5.05905478539433     0.0      0.0 
    0.0     5.05905478539433      0.0 
    0.0     0.0      10.11810957078866 
 AtomData:  id type    cartes_x    cartes_y    cartes_z    fx    fy    fz
    1    0   2.634112726370143    2.5963276579889905    2.2108231301926353    -0.038972784647875285    -0.02090049916892586    0.15715997809695872
    2    0   0.043367229431357276    0.07372408767111595    10.050940500402978    -0.0025975857190756297    -0.016948199092351516    -0.013164049175163044
    3    0   4.948266038743501    4.909335600358935    5.317062532205612    0.04052907350836867    0.06093617794356137    -0.13003432348605928
    4    0   2.4923640821491366    2.5387217188641404    7.716446752359465    0.001041296858582233    -0.02308722257194855    -0.013961605435736399
 Energy
    -56.2071936539
 PlusStress:  xx          yy          zz          yz          xz          xy
    -0.2620215474998923   -0.26986792777892715    -0.24823093973674004    -0.04089628509072729    -0.04208513058755075    0.015930529657434467
 Feature EFS_by Qe
END_CFG

BEGIN_CFG
 Size
    2
 Supercell
    4.8546489750926245     0.0      0.0 
    0.0     4.8546489750926245      0.0 
    0.0     0.0      4.8546489750926245 
 AtomData:  id type    cartes_x    cartes_y    cartes_z    fx    fy    fz
    1    0   0.16540905627404842    0.18453006219224577    4.728219837299185    -0.18902134797655598    -0.20737516927282582    0.1486835645577639
    2    0   2.2619159167371614    2.2427949108189638    2.5537531398748547    0.18902134797655598    0.20737516927282582    -0.1486835645577639
 Energy
    -28.046770133
 PlusStress:  xx          yy          zz          yz          xz          xy
    0.2846820333271122   0.24970080930573646    0.34645068114864064    -0.07332400710786877    -0.0667059376984193    0.09359841021935683
 Feature EFS_by Qe
END_CFG

BEGIN_CFG
 Size
    4
 Supercell
    5.365663765435493     0.0      0.0 
    0.0     5.365663765435493      0.0 
    0.0     0.0      10.731327530870987 
 AtomData:  id type    cartes_x    cartes_y    cartes_z    fx    fy    fz
    1    0   5.117035003536509    0.04216177616966248    10.702613717796636    0.07579047046398853    -0.021121356947079475    -0.024743270242597478
    2    0   2.6063631255646427    2.5160080305865917    2.5704029835750704    0.0009865323571308711    0.050818114912502946    0.05619480624748361
    3    0   0.2227281663368508    5.3558617708687954    5.6034045224216555    -0.0556433045779382    0.01566470429777312    -0.08612090663213062
    4    0   2.7852017719993607    2.817295953245937    7.951899749649611    -0.021133955353516642    -0.045361462263196595    0.054669370627244494
 Energy
    -56.0706296396
 PlusStress:  xx          yy          zz          yz          xz          xy
    -1.2056092151166975   -1.166746047476465    -1.1809296853013673    0.005673455129960928    0.02070811122435739    -0.0011346910259921858
 Feature EFS_by Qe
END_CFG

BEGIN_CFG
 Size
    4
 Supercell
    5.05905478539433     0.0      0.0 
    0.0     5.05905478539433      0.0 
    0.0     0.0      10.11810957078866 
 AtomData:  id type    cartes_x    cartes_y    cartes_z    fx    fy    fz
    1    0   4.817506673327328    -0.08364185867240298    0.1708108903411829    0.16431690139461183    0.06526540177190894    -0.12412155710166037
    2    0   2.5861316389745066    2.75763511391581    2.2438147441646272    -0.09418337253124709    -0.11722148702912423    0.1840737737914454
    3    0   0.12215188960430316    0.13748082560404798    5.050026902129794    -0.019383033969085774    -0.059270102969829805    -0.04840102064891491
    4    0   2.5923178511660865    2.247580704546875    7.712511819547386    -0.05075023778394352    0.11122618822704508    -0.011551453151205572
 Energy
    -56.1684385177
 PlusStress:  xx          yy          zz          yz          xz          xy
    -0.2430000195507168   -0.3048199853855371    -0.2170831877199652    -0.056113507450067664    -0.04279843788564484    0.0368542104015275
 Feature EFS_by Qe
END_CFG

BEGIN_CFG
 Size
    2
 Supercell
    5.365663765435493     0.0      0.0 
    0.0     5.365663765435493      0.0 
    0.0     0.0      5.365663765435493 
 AtomData:  id type    cartes_x    cartes_y    cartes_z    fx    fy    fz
    1    0   0.01859417121274016    -0.010002133825148304    -0.0015050686862046558    -0.010736156277486001    0.005726875611866829    0.000809126225668713
    2    0   2.6642377115050064    2.692834016542895    2.6843369514039512    0.010736156277486001    -0.005726875611866829    -0.000809126225668713
 Energy
    -28.0555282537
 PlusStress:  xx          yy          zz          yz          xz          xy
    -0.6254984280781923   -0.6250729189434454    -0.6249310825651962    0.00014183637824902322    -0.00014183637824902322    -0.0004255091347470696
 Feature EFS_by Qe
END_CFG

BEGIN_CFG
 Size
    2
 Supercell
    5.365663765435493     0.0      0.0 
    0.0     5.365663765435493      0.0 
    0.0     0.0      5.365663765435493 
 AtomData:  id type    cartes_x    cartes_y    cartes_z    fx    fy    fz
    1    0   -0.22632208792693947    -0.0003112084983952586    0.008506186767344888    0.1252266173234348    0.00014141068449882176    -0.0054815923518452365
    2    0   2.9091539706446863    2.683143091216142    2.674325695950402    -0.1252266173234348    -0.00014141068449882176    0.0054815923518452365
 Energy
    -28.0268811949
 PlusStress:  xx          yy          zz          yz          xz          xy
    -0.6355688109338731   -0.5389782373462882    -0.5389782373462882    0.0    -0.004680600482217767    0.00014183637824902322
 Feature EFS_by Qe
END_CFG

BEGIN_CFG
 Size
    4
 Supercell
    4.8546489750926245     0.0      0.0 
    0.0     4.8546489750926245      0.0 
    0.0     0.0      9.709297950185249 
 AtomData:  id type    cartes_x    cartes_y    cartes_z    fx    fy    fz
    1    0   2.7980021809693043    0.303753929976853    2.274983175383418    -0.09878590464618056    -0.07030579278811785    0.16911560869549547
    2    0   4.844092055431388    0.4020571734681961    5.821210071498463    -0.4040272948952737    0.36667996178812845    -0.9537351056302271
    3    0   0.10751202713219629    0.8025511499664123    9.024825941775116    -0.18366779657176607    0.22861094031918158    0.626543948933227
    4    0   1.9596912011874625    3.346285750751368    7.152222774016739    0.6864809961132202    -0.5249853664295278    0.15807529089116928
 Energy
    -55.1836464844
 PlusStress:  xx          yy          zz          yz          xz          xy
    1.817763064462122   1.058470910628776    2.7524865820062714    -0.38594900016376765    0.10336794125235368    -0.34350931696666315
 Feature EFS_by Qe
END_CFG

BEGIN_CFG
 Size
    2
 Supercell
    5.161257955133788     0.0      0.0 
    0.0     5.161257955133788      0.0 
    0.0     0.0      5.161257955133788 
 AtomData:  id type    cartes_x    cartes_y    cartes_z    fx    fy    fz
    1    0   5.096130105501136    0.3422388859985574    0.21733902411329728    0.06529445523981506    -0.2576613229012777    -0.19474873780909374
    2    0   2.6457568271995453    2.238390091568337    2.3632899534535965    -0.06529445523981506    0.2576613229012777    0.19474873780909374
 Energy
    -27.9820511167
 PlusStress:  xx          yy          zz          yz          xz          xy
    0.0085840626402152   -0.3573747255066064    -0.1541344188779818    0.18544100027170782    -0.045445037507021654    -0.06135080063447924
 Feature EFS_by Qe
END_CFG

BEGIN_CFG
 Size
    4
 Supercell
    4.8546489750926245     0.0      0.0 
    0.0     4.8546489750926245      0.0 
    0.0     0.0      9.709297950185249 
 AtomData:  id type    cartes_x    cartes_y    cartes_z    fx    fy    fz
    1    0   2.6411557545575244    0.5426599444093162    1.8122458025159494    -0.26974653710888247    -0.03692335816398417    0.6769458022126325
    2    0   4.736182918013029    0.023362998192633256    4.733943953905716    0.08300807180080838    -0.041616650227332345    0.26849209578221017
    3    0   0.030276018333165153    0.9215080120573895    9.518166050851775    0.1131761130111161    0.2167506976550977    -0.4113030031679058
    4    0   2.3016827738166326    3.3671180204332853    8.208887126330092    0.073562352296958    -0.1382109463741166    -0.5341348948269369
 Energy
    -55.2185381481
 PlusStress:  xx          yy          zz          yz          xz          xy
    3.1394860693778885   -0.12878973168230243    2.2930034772930648    -0.5765073796675986    -0.19160886671168    0.05819699131484139
 Feature EFS_by Qe
END_CFG

BEGIN_CFG
 Size
    2
 Supercell
    5.365663765435493     0.0      0.0 
    0.0     5.365663765435493      0.0 
    0.0     0.0      5.365663765435493 
 AtomData:  id type    cartes_x    cartes_y    cartes_z    fx    fy    fz
    1    0   0.011392913873149182    -0.006134026816645856    -0.000923967300407992    -0.0066079927314622155    0.003456848460157561    0.0005216768706329262
    2    0   2.6714389688445976    2.6889659095343927    2.6837569231509075    0.0066079927314622155    -0.003456848460157561    -0.0005216768706329262
 Energy
    -28.0556898893
 PlusStress:  xx          yy          zz          yz          xz          xy
    -0.6256402644564415   -0.6256402644564415    -0.6254984280781923    0.0    -0.00014183637824902322    -0.00014183637824902322
 Feature EFS_by Qe
END_CFG

BEGIN_CFG
 Size
    2
 Supercell
    5.05905478539433     0.0      0.0 
    0.0     5.05905478539433      0.0 
    0.0     0.0      5.05905478539433 
 AtomData:  id type    cartes_x    cartes_y    cartes_z    fx    fy    fz
    1    0   -0.015218142699944684    0.06790921010078371    0.16961897703374404    0.014029996784966739    -0.06157124047212881    -0.14419647498344856
    2    0   2.544745029491631    2.461617676690903    2.3599089215688993    -0.014029996784966739    0.06157124047212881    0.14419647498344856
 Energy
    -28.1043035747
 PlusStress:  xx          yy          zz          yz          xz          xy
    -0.10842270931030026   -0.12542319991487585    -0.2128033439314007    0.03364432756010413    -0.007489726629987846    -0.003209882841423363
 Feature EFS_by Qe
END_CFG

BEGIN_CFG
 Size
    2
 Supercell
    5.365663765435493     0.0      0.0 
    0.0     5.365663765435493      0.0 
    0.0     0.0      5.365663765435493 
 AtomData:  id type    cartes_x    cartes_y    cartes_z    fx    fy    fz
    1    0   0.010478068201142431    -0.006843904132812971    0.0003568166404014603    -0.006074488785398478    0.0038599974661469296    -0.0002632809835032609
    2    0   2.672353814516604    2.6896757868505596    2.682475066077345    0.006074488785398478    -0.0038599974661469296    0.0002632809835032609
 Energy
    -28.0556971003
 PlusStress:  xx          yy          zz          yz          xz          xy
    -0.6256402644564415   -0.6256402644564415    -0.6254984280781923    -0.0    -0.0    -0.00014183637824902322
 Feature EFS_by Qe
END_CFG

BEGIN_CFG
 Size
    4
 Supercell
    5.05905478539433     0.0      0.0 
    0.0     5.05905478539433      0.0 
    0.0     0.0      10.11810957078866 
 AtomData:  id type    cartes_x    cartes_y    cartes_z    fx    fy    fz
    1    0   2.54470708658074    2.487022732106717    2.1549119744208927    -0.01459923906765836    1.0284413418096128e-06    0.1816520515418192
    2    0   5.020938854830211    4.999360974359548    0.06816418646196758    0.026418344078069884    0.050081493801431815    -0.018051459541777778
    3    0   0.033327029304263685    5.077101951530267    4.952059823927068    -0.007422518274175428    -0.001320518682883543    0.04174160585036221
    4    0   2.519136094167965    2.6136786981864573    8.002028877278539    -0.004396586736236096    -0.04876200355989008    -0.20534219785040367
 Energy
    -56.1850888926
 PlusStress:  xx          yy          zz          yz          xz          xy
    -0.22255187700535314   -0.23681802296723475    -0.11793347328488799    0.017832682452352016    -0.005706458384752645    0.002377690993646935
 Feature EFS_by Qe
END_CFG

BEGIN_CFG
 Size
    2
 Supercell
    5.365663765435493     0.0      0.0 
    0.0     5.365663765435493      0.0 
    0.0     0.0      5.365663765435493 
 AtomData:  id type    cartes_x    cartes_y    cartes_z    fx    fy    fz
    1    0   -0.22632208792693947    -0.0003112084983952586    0.008506186767344888    0.1252266173234348    0.00014141068449882176    -0.0054815923518452365
    2    0   2.9091539706446863    2.683143091216142    2.674325695950402    -0.1252266173234348    -0.00014141068449882176    0.0054815923518452365
 Energy
    -28.0268811949
 PlusStress:  xx          yy          zz          yz          xz          xy
    -0.6355688109338731   -0.5389782373462882    -0.5389782373462882    0.0    -0.004680600482217767    0.00014183637824902322
 Feature EFS_by Qe
END_CFG

BEGIN_CFG
 Size
    2
 Supercell
    5.161257955133788     0.0      0.0 
    0.0     5.161257955133788      0.0 
    0.0     0.0      5.161257955133788 
 AtomData:  id type    cartes_x    cartes_y    cartes_z    fx    fy    fz
    1    0   0.04496694380830762    -0.019846069089080442    -0.013125078979905223    -0.03401878270437837    0.015124001262316715    0.009908518107664716
    2    0   2.5356620337585865    2.6004750466559745    2.5937550887983902    0.03401878270437837    -0.015124001262316715    -0.009908518107664716
 Energy
    -28.1115336399
 PlusStress:  xx          yy          zz          yz          xz          xy
    -0.3496743163734722   -0.3447511039768782    -0.3439936866850945    0.0007574172917836942    -0.0017673070141619534    -0.002524724305945647
 Feature EFS_by Qe
END_CFG

BEGIN_CFG
 Size
    4
 Supercell
    5.365663765435493     0.0      0.0 
    0.0     5.365663765435493      0.0 
    0.0     0.0      10.731327530870987 
 AtomData:  id type    cartes_x    cartes_y    cartes_z    fx    fy    fz
    1    0   3.045116134496186    2.678736808131966    2.8557988832939487    -0.15191209904003974    0.0323257111454243    -0.05960897439195607
    2    0   0.07333413638133651    0.10200180474730526    0.27929514001757794    0.01270793544007048    -0.0402156560094522    -0.060981429362600995
    3    0   5.270492987227964    0.05453016771536783    5.095694685608619    0.07072796795893069    -0.04256538736515171    0.09148757066402864
    4    0   2.342384809331877    2.5303960579736073    7.866203660519087    0.06847619564103855    0.05045533222917961    0.029103090200863876
 Energy
    -56.0362397539
 PlusStress:  xx          yy          zz          yz          xz          xy
    -1.2197928529415998   -1.0558299996857288    -1.0305831243574026    0.015318328850894508    0.07262022566349989    0.00879385545143944
 Feature EFS_by Qe
END_CFG

BEGIN_CFG
 Size
    4
 Supercell
    5.365663765435493     0.0      0.0 
    0.0     5.365663765435493      0.0 
    0.0     0.0      10.731327530870987 
 AtomData:  id type    cartes_x    cartes_y    cartes_z    fx    fy    fz
    1    0   4.39160960347629    3.681370105005008    1.6992059131673836    -0.49048527317718243    0.09908132442161537    0.2151234463420194
    2    0   0.33479702944086615    0.47861881757597563    4.559442736961723    0.08664978259215622    0.06308407768593075    0.23589976121892178
    3    0   1.2400397730066177    1.4049051578633889    0.8962429157319867    0.5607131615336582    -0.07514229530831301    -0.1444242747406594
    4    0   4.764880588380835    5.1664355966921205    8.942100803578139    -0.15687767094863198    -0.08702310679923311    -0.3065989328202818
 Energy
    -55.2994471227
 PlusStress:  xx          yy          zz          yz          xz          xy
    -0.1270853949111248   0.09276099137486117    1.2075949244121835    0.3270746882422475    0.09020793656637877    0.16509754428186302
 Feature EFS_by Qe
END_CFG

BEGIN_CFG
 Size
    6
 Supercell
    4.8546489750926245     0.0      0.0 
    0.0     4.8546489750926245      0.0 
    0.0     0.0      14.563946925277873 
 AtomData:  id type    cartes_x    cartes_y    cartes_z    fx    fy    fz
    1    0   2.454524114823961    2.845671921115329    2.8016159816663637    -0.06584724246103774    -0.03896018624143811    -0.1410345320780549
    2    0   -0.0003102120695084187    0.39230806739641505    4.826111892022338    0.1717995834872831    -0.024592346475686918    -0.0011690806953020775
    3    0   4.798163192407832    0.3056588942346793    0.7136877714071369    0.0005515016695454049    -0.055870590114478126    -0.1719731329637135
    4    0   2.7729167533203083    2.6886439308318804    6.760739026016294    -0.26622412551318453    -0.08646003516459234    0.1884616187762761
    5    0   -0.1111670923455435    4.652900929380418    9.128784851322443    0.11728499328198098    0.018425555079861027    0.167657021762474
    6    0   2.222495196129614    1.2514367529132493    12.178924877970724    0.042435032425077346    0.18745760291633448    -0.04194189480167963
 Energy
    -83.93008802
 PlusStress:  xx          yy          zz          yz          xz          xy
    1.2709844727766535   0.6208379398388315    2.123769988108571    0.2795346460086515    0.03403578553431157    0.08792577929697155
 Feature EFS_by Qe
END_CFG

BEGIN_CFG
 Size
    4
 Supercell
    5.161257955133788     0.0      0.0 
    0.0     5.161257955133788      0.0 
    0.0     0.0      10.322515910267576 
 AtomData:  id type    cartes_x    cartes_y    cartes_z    fx    fy    fz
    1    0   2.738622825460472    2.5753557203141337    2.5552041047541096    -0.057105491055656016    0.009409981167222506    -0.005019822189372721
    2    0   0.14448683582499283    0.034489074033590514    0.46795577501811514    -0.040544757238831275    -0.01727318655636335    -0.20107570894390647
    3    0   5.150687698841674    5.145692117266901    4.644762097425026    0.023041456932238018    0.0018848758692015682    0.240538545891154
    4    0   2.2887180340146416    2.5669779664013608    7.815850855952522    0.07460879136224927    0.00597832951993928    -0.03444275764753939
 Energy
    -56.1065256755
 PlusStress:  xx          yy          zz          yz          xz          xy
    -0.5259000729284783   -0.44106933624870465    -0.32063998685509726    0.006059338334269554    0.014390928543890192    0.00530192104248586
 Feature EFS_by Qe
END_CFG

BEGIN_CFG
 Size
    4
 Supercell
    4.956852144832083     0.0      0.0 
    0.0     4.956852144832083      0.0 
    0.0     0.0      9.913704289664166 
 AtomData:  id type    cartes_x    cartes_y    cartes_z    fx    fy    fz
    1    0   0.019133944964266323    4.887772957656488    9.694616381714733    -0.07049528310534627    0.05604825335627574    0.11306606978754248
    2    0   2.301684056654694    2.5310911393992392    2.4953358778229213    0.11305501404311803    -0.03915456165504013    -0.023660578620007405
    3    0   0.23541379617365218    4.9318423473353326    5.165444909735263    -0.16739579766165436    0.038272930314773836    -0.10234328324750001
    4    0   2.400619851354256    2.5198489987347594    7.4288620678318535    0.12483606672388259    -0.05516662201600944    0.01293753496962948
 Energy
    -56.2104039172
 PlusStress:  xx          yy          zz          yz          xz          xy
    -0.011182403625514016   0.13351789928863733    0.1748927927030392    0.005814849885267288    0.017891845800822426    -0.03153437822394953
 Feature EFS_by Qe
END_CFG

BEGIN_CFG
 Size
    2
 Supercell
    5.05905478539433     0.0      0.0 
    0.0     5.05905478539433      0.0 
    0.0     0.0      5.05905478539433 
 AtomData:  id type    cartes_x    cartes_y    cartes_z    fx    fy    fz
    1    0   0.024736754278664116    0.05343474845429199    0.12971112926463937    -0.02216651046069349    -0.04756824027238458    -0.11120870472423432
    2    0   2.504790132513022    2.4760921383373944    2.399815757527047    0.02216651046069349    0.04756824027238458    0.11120870472423432
 Energy
    -28.1157216083
 PlusStress:  xx          yy          zz          yz          xz          xy
    -0.141591498671675   -0.15038895534816865    -0.20091488896316606    0.020448142545363646    0.00951076397458774    0.00404207468919979
 Feature EFS_by Qe
END_CFG

BEGIN_CFG
 Size
    2
 Supercell
    4.956852144832083     0.0      0.0 
    0.0     4.956852144832083      0.0 
    0.0     0.0      4.956852144832083 
 AtomData:  id type    cartes_x    cartes_y    cartes_z    fx    fy    fz
    1    0   0.04931720904457784    -0.02865704930491772    -0.009427932779470622    -0.048115628176562744    0.028099074340922247    0.009245173442197515
    2    0   2.4291088633714635    2.5070831217209593    2.4878530138250827    0.048115628176562744    -0.028099074340922247    -0.009245173442197515
 Energy
    -28.1360808952
 PlusStress:  xx          yy          zz          yz          xz          xy
    -0.0031310730151439246   0.004025665305185046    0.00704491428407383    0.0007827682537859811    -0.001453712471316822    -0.004361137413950466
 Feature EFS_by Qe
END_CFG

BEGIN_CFG
 Size
    2
 Supercell
    4.956852144832083     0.0      0.0 
    0.0     4.956852144832083      0.0 
    0.0     0.0      4.956852144832083 
 AtomData:  id type    cartes_x    cartes_y    cartes_z    fx    fy    fz
    1    0   0.04931720904457784    -0.02865704930491772    -0.009427932779470622    -0.048115628176562744    0.028099074340922247    0.009245173442197515
    2    0   2.4291088633714635    2.5070831217209593    2.4878530138250827    0.048115628176562744    -0.028099074340922247    -0.009245173442197515
 Energy
    -28.1360808952
 PlusStress:  xx          yy          zz          yz          xz          xy
    -0.0031310730151439246   0.004025665305185046    0.00704491428407383    0.0007827682537859811    -0.001453712471316822    -0.004361137413950466
 Feature EFS_by Qe
END_CFG

BEGIN_CFG
 Size
    4
 Supercell
    5.263461124873246     0.0      0.0 
    0.0     5.263461124873246      0.0 
    0.0     0.0      10.526922249746493 
 AtomData:  id type    cartes_x    cartes_y    cartes_z    fx    fy    fz
    1    0   2.811580923689092    2.412594253694213    2.7151169453074275    -0.05856510643001931    0.11348258853097538    -0.10447909880410311
    2    0   5.281636382483546    5.244815313838383    10.318221279030256    -0.04337579914249769    -0.0095002268949663    0.12813787765176238
    3    0   0.012328078646678118    0.20978103293906059    5.128094905317644    0.015728981881636222    -0.10893996312420232    0.1156934803055306
    4    0   2.4213758122349516    2.659732175620949    8.155871968364792    0.08621166658054533    0.004957601488193238    -0.13935225915318983
 Energy
    -56.0969547508
 PlusStress:  xx          yy          zz          yz          xz          xy
    -0.8303540160066064   -0.8622186170723225    -0.929428826042867    -0.06399697188828729    -0.021957120062090205    -0.034006759120554335
 Feature EFS_by Qe
END_CFG

BEGIN_CFG
 Size
    2
 Supercell
    5.05905478539433     0.0      0.0 
    0.0     5.05905478539433      0.0 
    0.0     0.0      5.05905478539433 
 AtomData:  id type    cartes_x    cartes_y    cartes_z    fx    fy    fz
    1    0   0.008238164812536126    -0.004168155237686389    -0.0011367696102781058    -0.007104215678885353    0.0036298837159170288    0.0009513082411738919