BEGIN_CFG
 Size
    2
 Supercell
         5.365664      0.000000      0.000000
         0.000000      5.365664      0.000000
         0.000000      0.000000      5.365664
 AtomData:  id type       cartes_x      cartes_y      cartes_z           fx          fy          fz
             1    0       0.195993     -0.132472     -0.065658    -0.114828    0.082329    0.042344
             2    0       2.486839      2.815304      2.748491     0.114828   -0.082329   -0.042344
 Energy
        -28.020397946200
 PlusStress:  xx          yy          zz          yz          xz          xy
        -0.59671    -0.55657    -0.52848     0.02298    -0.03206    -0.06269
 Feature   EFS_by	Qe
 Feature   mindist	4.195758
END_CFG

BEGIN_CFG
 Size
    1
 Supercell
         2.555084      2.555089      2.555093
        -2.555102      2.555106      2.555111
        -2.555115     -2.555120      2.555129
 AtomData:  id type       cartes_x      cartes_y      cartes_z           fx          fy          fz
             1    0       0.000000      0.000000      0.000000     0.000000    0.000000    0.000000
 Energy
        -13.988890825100
 PlusStress:  xx          yy          zz          yz          xz          xy
         0.00447     0.00453     0.00447     0.00000     0.00000     0.00000
 Feature   EFS_by	Qe
 Feature   mindist	4.425543
END_CFG

BEGIN_CFG
 Size
    2
 Supercell
         5.416770      0.000000      0.000000
         0.000000      5.416770      0.000000
         0.000000      0.000000      5.416775
 AtomData:  id type       cartes_x      cartes_y      cartes_z           fx          fy          fz
             1    0       0.000000      0.000000      0.000000     0.000000    0.000000    0.000000
             2    0       2.708385      2.708386      2.708403     0.000000    0.000000    0.000000
 Energy
        -27.940525045000
 PlusStress:  xx          yy          zz          yz          xz          xy
        -0.49163    -0.49163    -0.49163     0.00000     0.00000     0.00000
 Feature   EFS_by	Qe
 Feature   mindist	4.691052
END_CFG

BEGIN_CFG
 Size
    1
 Supercell
         2.171817      2.171817      2.171817
        -2.171821      2.171821      2.171821
        -2.171821     -2.171821      2.171821
 AtomData:  id type       cartes_x      cartes_y      cartes_z           fx          fy          fz
             1    0       0.000000      0.000000      0.000000     0.000000    0.000000    0.000000
 Energy
        -13.722442783600
 PlusStress:  xx          yy          zz          yz          xz          xy
         1.25686     1.25705     1.25693     0.00008     0.00004    -0.00000
 Feature   EFS_by	Qe
 Feature   mindist	3.761698
END_CFG

BEGIN_CFG
 Size
    2
 Supercell
         5.212364      0.000000      0.000000
         0.000000      5.212364      0.000000
         0.000000      0.000000      5.212370
 AtomData:  id type       cartes_x      cartes_y      cartes_z           fx          fy          fz
             1    0       0.000000      0.000000      0.000000     0.000000    0.000000    0.000000
             2    0       2.606183      2.606183      2.606200     0.000000    0.000000    0.000000
 Energy
        -27.980363602600
 PlusStress:  xx          yy          zz          yz          xz          xy
        -0.18138    -0.18138    -0.18138     0.00000     0.00000     0.00000
 Feature   EFS_by	Qe
 Feature   mindist	4.514032
END_CFG

BEGIN_CFG
 Size
    1
 Supercell
         2.171817      2.171817      2.171817
        -2.171821      2.171821      2.171821
        -2.171821     -2.171821      2.171821
 AtomData:  id type       cartes_x      cartes_y      cartes_z           fx          fy          fz
             1    0       0.000000      0.000000      0.000000     0.000000    0.000000    0.000000
 Energy
        -13.722442783600
 PlusStress:  xx          yy          zz          yz          xz          xy
         1.25686     1.25705     1.25693     0.00008     0.00004    -0.00000
 Feature   EFS_by	Qe
 Feature   mindist	3.761698
END_CFG

BEGIN_CFG
 Size
    1
 Supercell
         2.299571      2.299571      2.299571
        -2.299575      2.299575      2.299575
        -2.299575     -2.299575      2.299575
 AtomData:  id type       cartes_x      cartes_y      cartes_z           fx          fy          fz
             1    0       0.000000      0.000000      0.000000     0.000000    0.000000    0.000000
 Energy
        -13.887733586000
 PlusStress:  xx          yy          zz          yz          xz          xy
         0.69781     0.69768     0.69786     0.00004    -0.00004     0.00004
 Feature   EFS_by	Qe
 Feature   mindist	3.982974
END_CFG

BEGIN_CFG
 Size
    2
 Supercell
         4.956852      0.000000      0.000000
         0.000000      4.956852      0.000000
         0.000000      0.000000      4.956852
 AtomData:  id type       cartes_x      cartes_y      cartes_z           fx          fy          fz
             1    0       0.256643      4.792005      4.902360    -0.245854    0.174037    0.061210
             2    0       2.221783      2.643272      2.532918     0.245854   -0.174037   -0.061210
 Energy
        -28.045032005800
 PlusStress:  xx          yy          zz          yz          xz          xy
        -0.04630     0.11920     0.23830     0.02941    -0.04227    -0.12111
 Feature   EFS_by	Qe
 Feature   mindist	3.754076
END_CFG

BEGIN_CFG
 Size
    2
 Supercell
         4.854649      0.000000      0.000000
         0.000000      4.854649      0.000000
         0.000000      0.000000      4.854649
 AtomData:  id type       cartes_x      cartes_y      cartes_z           fx          fy          fz
             1    0       4.390750      4.595596      4.445201     0.631826    0.536648    0.626682
             2    0       2.891223      2.686377      2.836772    -0.631826   -0.536648   -0.626682
 Energy
        -27.555240527000
 PlusStress:  xx          yy          zz          yz          xz          xy
         0.33227     1.30229     0.59016     0.52178     0.58386     0.51821
 Feature   EFS_by	Qe
 Feature   mindist	2.912172
END_CFG

BEGIN_CFG
 Size
    2
 Supercell
         5.263461      0.000000      0.000000
         0.000000      5.263461      0.000000
         0.000000      0.000000      5.263461
 AtomData:  id type       cartes_x      cartes_y      cartes_z           fx          fy          fz
             1    0       0.420828      0.500405      4.969408    -0.450406   -0.454239    0.397083
             2    0       2.210903      2.131325      2.925784     0.450406    0.454239   -0.397083
 Energy
        -27.661677727300
 PlusStress:  xx          yy          zz          yz          xz          xy
         0.00308    -0.21609     0.37434    -0.45387    -0.45012     0.51492
 Feature   EFS_by	Qe
 Feature   mindist	3.168701
END_CFG

BEGIN_CFG
 Size
    1
 Supercell
         3.193853      3.193858      3.193864
        -3.193869      3.193875      3.193880
        -3.193886     -3.193891      3.193897
 AtomData:  id type       cartes_x      cartes_y      cartes_z           fx          fy          fz
             1    0       0.000000      0.000000      0.000000     0.000000    0.000000    0.000000
 Energy
        -13.737094482300
 PlusStress:  xx          yy          zz          yz          xz          xy
        -0.61299    -0.61299    -0.61299    -0.00000     0.00000     0.00012
 Feature   EFS_by	Qe
 Feature   mindist	5.531924
END_CFG

BEGIN_CFG
 Size
    1
 Supercell
         2.555084      2.555089      2.555093
        -2.555102      2.555106      2.555111
        -2.555115     -2.555120      2.555129
 AtomData:  id type       cartes_x      cartes_y      cartes_z           fx          fy          fz
             1    0       0.000000      0.000000      0.000000     0.000000    0.000000    0.000000
 Energy
        -13.988890825100
 PlusStress:  xx          yy          zz          yz          xz          xy
         0.00447     0.00453     0.00447     0.00000     0.00000     0.00000
 Feature   EFS_by	Qe
 Feature   mindist	4.425543
END_CFG

BEGIN_CFG
 Size
    2
 Supercell
         4.854649      0.000000      0.000000
         0.000000      4.854649      0.000000
         0.000000      0.000000      4.854649
 AtomData:  id type       cartes_x      cartes_y      cartes_z           fx          fy          fz
             1    0       0.249008      3.895773     -0.004565    -0.558723    0.313795    0.015287
             2    0       2.178316      3.386200      2.431890     0.558723   -0.313795   -0.015287
 Energy
        -27.404827822000
 PlusStress:  xx          yy          zz          yz          xz          xy
         1.66618    -1.24672     2.40593     0.00651    -0.01639    -0.23153
 Feature   EFS_by	Qe
 Feature   mindist	3.135212
END_CFG

BEGIN_CFG
 Size
    1
 Supercell
         2.555086      3.066094      3.066094
        -2.555101      2.555106      2.555111
        -2.555116     -2.555121      2.555126
 AtomData:  id type       cartes_x      cartes_y      cartes_z           fx          fy          fz
             1    0       0.000000      0.000000      0.000000     0.000000    0.000000    0.000000
 Energy
        -13.970625454400
 PlusStress:  xx          yy          zz          yz          xz          xy
        -0.13087    -0.14496    -0.11227    -0.08875    -0.10358    -0.07029
 Feature   EFS_by	Qe
 Feature   mindist	4.425574
END_CFG

BEGIN_CFG
 Size
    2
 Supercell
         4.956852      0.000000      0.000000
         0.000000      4.956852      0.000000
         0.000000      0.000000      4.956852
 AtomData:  id type       cartes_x      cartes_y      cartes_z           fx          fy          fz
             1    0      -0.051518      0.083460      0.114743     0.051837   -0.083082   -0.112446
             2    0       2.529943      2.394966      2.363683    -0.051837    0.083082    0.112446
 Energy
        -28.117001495900
 PlusStress:  xx          yy          zz          yz          xz          xy
         0.04741     0.02829     0.00112     0.02952    -0.01834    -0.01353
 Feature   EFS_by	Qe
 Feature   mindist	4.005405
END_CFG

BEGIN_CFG
 Size
    2
 Supercell
         5.007954      0.000000      0.000000
         0.000000      5.007954      0.000000
         0.000000      0.000000      5.007959
 AtomData:  id type       cartes_x      cartes_y      cartes_z           fx          fy          fz
             1    0       0.000000      0.000000      0.000000     0.000000    0.000000    0.000000
             2    0       2.503977      2.503978      2.503994     0.000000    0.000000    0.000000
 Energy
        -27.979489300800
 PlusStress:  xx          yy          zz          yz          xz          xy
         0.21634     0.21634     0.21634     0.00000     0.00000     0.00000
 Feature   EFS_by	Qe
 Feature   mindist	4.337007
END_CFG

BEGIN_CFG
 Size
    1
 Supercell
         2.555083      5.110166      5.110174
        -2.555099      2.555106      2.555114
        -2.555114     -2.555122      2.555129
 AtomData:  id type       cartes_x      cartes_y      cartes_z           fx          fy          fz
             1    0       0.000000      0.000000      0.000000     0.000000    0.000000    0.000000
 Energy
        -13.814578087700
 PlusStress:  xx          yy          zz          yz          xz          xy
        -0.27899    -0.22707    -0.24325     0.00009    -0.26438     0.00000
 Feature   EFS_by	Qe
 Feature   mindist	4.425574
END_CFG

BEGIN_CFG
 Size
    2
 Supercell
         5.263461      0.000000      0.000000
         0.000000      5.263461      0.000000
         0.000000      0.000000      5.263461
 AtomData:  id type       cartes_x      cartes_y      cartes_z           fx          fy          fz
             1    0       0.608460      0.533817      4.893045    -0.647198   -0.676458    0.664699
             2    0       2.023271      2.097914      3.002147     0.647198    0.676458   -0.664699
 Energy
        -27.327658916300
 PlusStress:  xx          yy          zz          yz          xz          xy
        -0.11461     0.16722     0.88177    -0.77011    -0.73623     0.74935
 Feature   EFS_by	Qe
 Feature   mindist	2.832593
END_CFG

BEGIN_CFG
 Size
    2
 Supercell
         5.365664      0.000000      0.000000
         0.000000      5.365664      0.000000
         0.000000      0.000000      5.365664
 AtomData:  id type       cartes_x      cartes_y      cartes_z           fx          fy          fz
             1    0       0.407967      5.149386      5.310842    -0.229646    0.163633    0.046684
             2    0       2.274865      2.899110      2.737654     0.229646   -0.163633   -0.046684
 Energy
        -27.927582085300
 PlusStress:  xx          yy          zz          yz          xz          xy
        -0.60139    -0.37033    -0.24367     0.03716    -0.05347    -0.18949
 Feature   EFS_by	Qe
 Feature   mindist	3.894913
END_CFG

BEGIN_CFG
 Size
    4
 Supercell
         4.956852      0.000000      0.000000
         0.000000      4.956852      0.000000
         0.000000      0.000000      9.913704
 AtomData:  id type       cartes_x      cartes_y      cartes_z           fx          fy          fz
             1    0       2.865039      3.903745      1.780338    -0.083796   -0.125424    0.362583
             2    0       4.883303      1.277338      5.878495    -0.120767    0.039140   -0.630615
             3    0       4.978173      0.989583      9.369976    -0.075660    0.251713    0.425739
             4    0       2.144041      3.743037      7.755450     0.280223   -0.165429   -0.157707
 Energy
        -55.677644571400
 PlusStress:  xx          yy          zz          yz          xz          xy
         0.82146     0.94581     1.69458    -0.11652    -0.08275    -0.00738
 Feature   EFS_by	Qe
 Feature   mindist	3.459422
END_CFG

BEGIN_CFG
 Size
    1
 Supercell
         2.044064      2.044064      2.044064
        -2.044067      2.044067      2.044067
        -2.044067     -2.044067      2.044067
 AtomData:  id type       cartes_x      cartes_y      cartes_z           fx          fy          fz
             1    0       0.000000      0.000000      0.000000     0.000000    0.000000    0.000000
 Energy
        -13.426178274100
 PlusStress:  xx          yy          zz          yz          xz          xy
         2.03698     2.03698     2.03695     0.00000     0.00006     0.00006
 Feature   EFS_by	Qe
 Feature   mindist	3.540422
END_CFG

BEGIN_CFG
 Size
    1
 Supercell
         2.555087      4.088125      4.088131
        -2.555099      2.555106      2.555112
        -2.555118     -2.555118      2.555125
 AtomData:  id type       cartes_x      cartes_y      cartes_z           fx          fy          fz
             1    0       0.000000      0.000000      0.000000     0.000000    0.000000    0.000000
 Energy
        -13.889475250800
 PlusStress:  xx          yy          zz          yz          xz          xy
        -0.30208    -0.23192    -0.21926    -0.05193    -0.23335    -0.01107
 Feature   EFS_by	Qe
 Feature   mindist	4.425573
END_CFG

BEGIN_CFG
 Size
    2
 Supercell
         5.161258      0.000000      0.000000
         0.000000      5.161258      0.000000
         0.000000      0.000000      5.161258
 AtomData:  id type       cartes_x      cartes_y      cartes_z           fx          fy          fz
             1    0       4.259129      4.951036      0.058037     0.296722    0.330445   -0.105588
             2    0       3.482758      2.790851      2.522592    -0.296722   -0.330445    0.105588
 Energy
        -27.618332302400
 PlusStress:  xx          yy          zz          yz          xz          xy
        -1.01090     0.78077     1.08437    -0.07915    -0.06930     0.21624
 Feature   EFS_by	Qe
 Feature   mindist	3.367964
END_CFG

BEGIN_CFG
 Size
    2
 Supercell
         5.212364      0.000000      0.000000
         0.000000      5.212364      0.000000
         0.000000      0.000000      5.212370
 AtomData:  id type       cartes_x      cartes_y      cartes_z           fx          fy          fz
             1    0       0.000000      0.000000      0.000000     0.000000    0.000000    0.000000
             2    0       2.606183      2.606183      2.606200     0.000000    0.000000    0.000000
 Energy
        -27.980363602600
 PlusStress:  xx          yy          zz          yz          xz          xy
        -0.18138    -0.18138    -0.18138     0.00000     0.00000     0.00000
 Feature   EFS_by	Qe
 Feature   mindist	4.514032
END_CFG

BEGIN_CFG
 Size
    4
 Supercell
         5.059055      0.000000      0.000000
         0.000000      5.059055      0.000000
         0.000000      0.000000     10.118110
 AtomData:  id type       cartes_x      cartes_y      cartes_z           fx          fy          fz
             1    0       2.450808      1.634132      3.471374     0.073137   -0.171949   -0.701956
             2    0       5.026310      3.750961      4.917078    -0.101557    0.154190    0.087144
             3    0       0.301312      3.705310     10.099869    -0.062298    0.015633    0.017051
             4    0       2.339680      1.027706      6.806954     0.090719    0.002127    0.597762
 Energy
        -55.748461523200
 PlusStress:  xx          yy          zz          yz          xz          xy
         0.45271     0.27676     0.85716     0.01118    -0.02235     0.00214
 Feature   EFS_by	Qe
 Feature   mindist	3.392078
END_CFG

BEGIN_CFG
 Size
    2
 Supercell
         5.365664      0.000000      0.000000
         0.000000      5.365664      0.000000
         0.000000      0.000000      5.365664
 AtomData:  id type       cartes_x      cartes_y      cartes_z           fx          fy          fz
             1    0       0.939481      0.015945      5.346877    -0.220089   -0.021816    0.025757
             2    0       1.743351      2.666887      2.701619     0.220089    0.021816   -0.025757
 Energy
        -27.703728298500
 PlusStress:  xx          yy          zz          yz          xz          xy
        -0.97966     0.45657     0.45558    -0.00156    -0.01844     0.01574
 Feature   EFS_by	Qe
 Feature   mindist	3.830286
END_CFG

BEGIN_CFG
 Size
    1
 Supercell
         1.916316      1.916319      1.916326
        -1.916329      1.916336      1.916342
        -1.916346     -1.916352      1.916356
 AtomData:  id type       cartes_x      cartes_y      cartes_z           fx          fy          fz
             1    0       0.000000      0.000000      0.000000     0.000000    0.000000    0.000000
 Energy
        -12.934274239300
 PlusStress:  xx          yy          zz          yz          xz          xy
         3.07321     3.07300     3.07303     0.00000    -0.00003     0.00008
 Feature   EFS_by	Qe
 Feature   mindist	3.319164
END_CFG

BEGIN_CFG
 Size
    2
 Supercell
         4.956852      0.000000      0.000000
         0.000000      4.956852      0.000000
         0.000000      0.000000      4.956852
 AtomData:  id type       cartes_x      cartes_y      cartes_z           fx          fy          fz
             1    0       4.852379      0.527093      4.684885     0.170646   -0.442499    0.363403
             2    0       2.582898      1.951333      2.750393    -0.170646    0.442499   -0.363403
 Energy
        -27.788512854800
 PlusStress:  xx          yy          zz          yz          xz          xy
         0.90857    -0.32541     0.49370    -0.33156     0.13452    -0.15823
 Feature   EFS_by	Qe
 Feature   mindist	3.304733
END_CFG

BEGIN_CFG
 Size
    4
 Supercell
         5.365664      0.000000      0.000000
         0.000000      5.365664      0.000000
         0.000000      0.000000     10.731328
 AtomData:  id type       cartes_x      cartes_y      cartes_z           fx          fy          fz
             1    0       1.253375      1.070826      4.422642     0.059464    0.134983    0.054442
             2    0       4.163634      4.408138      2.023641    -0.380699   -0.121162    0.668846
             3    0       1.148676      4.098001     10.766025     0.531356   -0.289914   -0.351369
             4    0       4.165644      1.154364      9.616013    -0.210121    0.276093   -0.371918
 Energy
        -55.167086587300
 PlusStress:  xx          yy          zz          yz          xz          xy
         1.73381    -0.32963     0.79031     0.03943    -0.27772    -0.13560
 Feature   EFS_by	Qe
 Feature   mindist	3.094818
END_CFG

BEGIN_CFG
 Size
    2
 Supercell
         4.854649      0.000000      0.000000
         0.000000      4.854649      0.000000
         0.000000      0.000000      4.854649
 AtomData:  id type       cartes_x      cartes_y      cartes_z           fx          fy          fz
             1    0       0.069104      0.158068     -0.106820    -0.079304   -0.172309    0.120529
             2    0       2.358221      2.269257      2.534144     0.079304    0.172309   -0.120529
 Energy
        -28.087938375000
 PlusStress:  xx          yy          zz          yz          xz          xy
         0.30159     0.19571     0.26577    -0.05252    -0.02395     0.03446
 Feature   EFS_by	Qe
 Feature   mindist	3.820678
END_CFG

BEGIN_CFG
 Size
    1
 Supercell
         2.938341      2.938341      2.938341
        -2.938341      2.938346      2.938346
        -2.938346     -2.938346      2.938346
 AtomData:  id type       cartes_x      cartes_y      cartes_z           fx          fy          fz
             1    0       0.000000      0.000000      0.000000     0.000000    0.000000    0.000000
 Energy
        -13.875878673600
 PlusStress:  xx          yy          zz          yz          xz          xy
        -0.47806    -0.47806    -0.47797     0.00000     0.00000    -0.00000
 Feature   EFS_by	Qe
 Feature   mindist	5.089356
END_CFG

BEGIN_CFG
 Size
    2
 Supercell
         5.059055      0.000000      0.000000
         0.000000      5.059055      0.000000
         0.000000      0.000000      5.059055
 AtomData:  id type       cartes_x      cartes_y      cartes_z           fx          fy          fz
             1    0       0.361795      4.810057      5.019555    -0.306960    0.249375    0.046147
             2    0       2.167733      2.778526      2.569027     0.306960   -0.249375   -0.046147
 Energy
        -27.961359034600
 PlusStress:  xx          yy          zz          yz          xz          xy
        -0.23789     0.00345     0.28437     0.03305    -0.04137    -0.22648
 Feature   EFS_by	Qe
 Feature   mindist	3.659729
END_CFG

BEGIN_CFG
 Size
    2
 Supercell
         5.059055      0.000000      0.000000
         0.000000      5.059055      0.000000
         0.000000      0.000000      5.059055
 AtomData:  id type       cartes_x      cartes_y      cartes_z           fx          fy          fz
             1    0       0.036940     -0.016944     -0.009528    -0.031970    0.014778    0.008312
             2    0       2.492588      2.546472      2.539055     0.031970   -0.014778   -0.008312
 Energy
        -28.131730610900
 PlusStress:  xx          yy          zz          yz          xz          xy
        -0.18915    -0.18510    -0.18439     0.00048    -0.00095    -0.00178
 Feature   EFS_by	Qe
 Feature   mindist	4.308235
END_CFG

BEGIN_CFG
 Size
    2
 Supercell
         4.854649      0.000000      0.000000
         0.000000      4.854649      0.000000
         0.000000      0.000000      4.854649
 AtomData:  id type       cartes_x      cartes_y      cartes_z           fx          fy          fz
             1    0       4.865164      3.857377     -0.004526    -0.023080    0.231560    0.010016
             2    0       2.416809      3.424596      2.431851     0.023080   -0.231560   -0.010016
 Energy
        -27.522145086900
 PlusStress:  xx          yy          zz          yz          xz          xy
         1.87428    -1.30754     1.87522     0.00347    -0.00063    -0.00809
 Feature   EFS_by	Qe
 Feature   mindist	3.438835
END_CFG

BEGIN_CFG
 Size
    2
 Supercell
         5.365664      0.000000      0.000000
         0.000000      5.365664      0.000000
         0.000000      0.000000      5.365664
 AtomData:  id type       cartes_x      cartes_y      cartes_z           fx          fy          fz
             1    0       5.357871      0.532351      0.022238     0.007052   -0.244487   -0.020071
             2    0       2.690626      2.150481      2.660594    -0.007052    0.244487    0.020071
 Energy
        -27.908948680600
 PlusStress:  xx          yy          zz          yz          xz          xy
        -0.18013    -0.71642    -0.18169     0.02369    -0.00057    -0.00837
 Feature   EFS_by	Qe
 Feature   mindist	4.085763
END_CFG

BEGIN_CFG
 Size
    2
 Supercell
         4.854649      0.000000      0.000000
         0.000000      4.854649      0.000000
         0.000000      0.000000      4.854649
 AtomData:  id type       cartes_x      cartes_y      cartes_z           fx          fy          fz
             1    0       0.310247      4.780153      0.324374    -0.358191    0.110021   -0.366630
             2    0       2.117077      2.501820      2.102951     0.358191   -0.110021    0.366630
 Energy
        -27.901057514700
 PlusStress:  xx          yy          zz          yz          xz          xy
         0.25705     0.79921     0.21325    -0.08362     0.26819    -0.08183
 Feature   EFS_by	Qe
 Feature   mindist	3.408632
END_CFG

BEGIN_CFG
 Size
    2
 Supercell
         5.059055      0.000000      0.000000
         0.000000      5.059055      0.000000
         0.000000      0.000000      5.059055
 AtomData:  id type       cartes_x      cartes_y      cartes_z           fx          fy          fz
             1    0       4.642828      4.735222      4.624491     0.546140    0.510646    0.548812
             2    0       2.945755      2.853360      2.964091    -0.546140   -0.510646   -0.548812
 Energy
        -27.637122988900
 PlusStress:  xx          yy          zz          yz          xz          xy
         0.27462     0.63092     0.20531     0.54092     0.57207     0.53962
 Feature   EFS_by	Qe
 Feature   mindist	3.029585
END_CFG

BEGIN_CFG
 Size
    2
 Supercell
         5.365664      0.000000      0.000000
         0.000000      5.365664      0.000000
         0.000000      0.000000      5.365664
 AtomData:  id type       cartes_x      cartes_y      cartes_z           fx          fy          fz
             1    0       0.061540     -0.037600     -0.011842    -0.035369    0.021767    0.006800
             2    0       2.621292      2.720432      2.694674     0.035369   -0.021767   -0.006800
 Energy
        -28.052723168000
 PlusStress:  xx          yy          zz          yz          xz          xy
        -0.62380    -0.61940    -0.61685     0.00113    -0.00184    -0.00567
 Feature   EFS_by	Qe
 Feature   mindist	4.519197
END_CFG

BEGIN_CFG
 Size
    2
 Supercell
         4.599143      0.000000      0.000000
         0.000000      4.599143      0.000000
         0.000000      0.000000      4.599148
 AtomData:  id type       cartes_x      cartes_y      cartes_z           fx          fy          fz
             1    0       0.000000      0.000000      0.000000     0.000000    0.000000    0.000000
             2    0       2.299572      2.299573      2.299588     0.000000    0.000000    0.000000
 Energy
        -27.785832669300
 PlusStress:  xx          yy          zz          yz          xz          xy
         1.39098     1.39098     1.39098     0.00000     0.00000     0.00000
 Feature   EFS_by	Qe
 Feature   mindist	3.982967
END_CFG

BEGIN_CFG
 Size
    1
 Supercell
         2.938341      2.938341      2.938341
        -2.938341      2.938346      2.938346
        -2.938346     -2.938346      2.938346
 AtomData:  id type       cartes_x      cartes_y      cartes_z           fx          fy          fz
             1    0       0.000000      0.000000      0.000000     0.000000    0.000000    0.000000
 Energy
        -13.875878673600
 PlusStress:  xx          yy          zz          yz          xz          xy
        -0.47806    -0.47806    -0.47797     0.00000     0.00000    -0.00000
 Feature   EFS_by	Qe
 Feature   mindist	5.089356
END_CFG

BEGIN_CFG
 Size
    1
 Supercell
         3.066095      3.066095      3.066095
        -3.066095      3.066100      3.066100
        -3.066100     -3.066100      3.066100
 AtomData:  id type       cartes_x      cartes_y      cartes_z           fx          fy          fz
             1    0       0.000000      0.000000      0.000000     0.000000    0.000000    0.000000
 Energy
        -13.809265064600
 PlusStress:  xx          yy          zz          yz          xz          xy
        -0.55842    -0.55842    -0.55831     0.00000    -0.00000     0.00000
 Feature   EFS_by	Qe
 Feature   mindist	5.310632
END_CFG

BEGIN_CFG
 Size
    2
 Supercell
         4.956852      0.000000      0.000000
         0.000000      4.956852      0.000000
         0.000000      0.000000      4.956852
 AtomData:  id type       cartes_x      cartes_y      cartes_z           fx          fy          fz
             1    0       0.000000      0.000000      0.000000     0.000000    0.000000    0.000000
             2    0       2.478426      2.478426      2.478426     0.000000    0.000000    0.000000
 Energy
        -28.139340139000
 PlusStress:  xx          yy          zz          yz          xz          xy
        -0.00134    -0.00134    -0.00134     0.00000     0.00000     0.00000
 Feature   EFS_by	Qe
 Feature   mindist	4.292760
END_CFG

BEGIN_CFG
 Size
    2
 Supercell
         5.263461      0.000000      0.000000
         0.000000      5.263461      0.000000
         0.000000      0.000000      5.263461
 AtomData:  id type       cartes_x      cartes_y      cartes_z           fx          fy          fz
             1    0       0.423667      5.025192      5.160545    -0.276077    0.208543    0.101636
             2    0       2.208064      2.870000      2.734646     0.276077   -0.208543   -0.101636
 Energy
        -27.917606527300
 PlusStress:  xx          yy          zz          yz          xz          xy
        -0.49524    -0.19828    -0.03401     0.08073    -0.11005    -0.22814
 Feature   EFS_by	Qe
 Feature   mindist	3.703230
END_CFG

BEGIN_CFG