BEGIN_CFG
 Size
    4
 Supercell
         4.956852      0.000000      0.000000
         0.000000      4.956852      0.000000
         0.000000      0.000000      9.913704
 AtomData:  id type       cartes_x      cartes_y      cartes_z           fx          fy          fz
             1    0       2.609435      2.562890      2.085155    -0.024106   -0.148905    0.223360
             2    0       0.063196      4.881335      0.614307    -0.026775    0.128288   -0.400823
             3    0       0.143078      4.846335      4.505350    -0.047339    0.074188    0.251534
             4    0       2.141143      2.579996      7.665743     0.098219   -0.053571   -0.074072
 Energy
        -56.009498852700
 PlusStress:  xx          yy          zz          yz          xz          xy
         0.38087     0.41576     0.66177    -0.01677    -0.00738    -0.02482
 Feature   EFS_by	Qe
 Feature   mindist	3.653715
END_CFG

BEGIN_CFG
 Size
    4
 Supercell
         5.059055      0.000000      0.000000
         0.000000      5.059055      0.000000
         0.000000      0.000000     10.118110
 AtomData:  id type       cartes_x      cartes_y      cartes_z           fx          fy          fz
             1    0       2.408926      2.212792      2.367464     0.076403    0.234115    0.156896
             2    0       0.164487      0.217219      5.273859    -0.106462   -0.202625   -0.157579
             3    0      -0.020574      0.302004      0.104313    -0.035126   -0.238677   -0.144357
             4    0       2.506215      2.327039      7.431529     0.065185    0.207187    0.145040
 Energy
        -56.084764730100
 PlusStress:  xx          yy          zz          yz          xz          xy
         0.05754    -0.40326    -0.10177     0.21946     0.07680     0.10224
 Feature   EFS_by	Qe
 Feature   mindist	3.819760
END_CFG

BEGIN_CFG
 Size
    4
 Supercell
         5.161258      0.000000      0.000000
         0.000000      5.161258      0.000000
         0.000000      0.000000     10.322516
 AtomData:  id type       cartes_x      cartes_y      cartes_z           fx          fy          fz
             1    0       2.154878      2.887880      2.003137     0.093750   -0.218633    0.284140
             2    0       4.897313      4.902891      0.062353    -0.053360    0.249105   -0.218112
             3    0       0.741827      4.975633      5.931881    -0.391384    0.240833   -0.425234
             4    0       2.528498      2.717370      7.486402     0.350995   -0.271305    0.359206
 Energy
        -55.678417238700
 PlusStress:  xx          yy          zz          yz          xz          xy
         0.04343     0.46985    -0.37214    -0.46404     0.57210    -0.28529
 Feature   EFS_by	Qe
 Feature   mindist	3.272382
END_CFG

BEGIN_CFG
 Size
    4
 Supercell
         5.365664      0.000000      0.000000
         0.000000      5.365664      0.000000
         0.000000      0.000000     10.731328
 AtomData:  id type       cartes_x      cartes_y      cartes_z           fx          fy          fz
             1    0       2.628902      1.885444      1.603239     0.009792    0.105522    0.229352
             2    0       5.224422      4.750145     10.525577    -0.410196   -0.458931    0.358001
             3    0       1.081896      3.440505      6.178477    -0.163148   -0.053407   -0.377294
             4    0       1.796109      0.655234      8.521028     0.563552    0.406815   -0.210059
 Energy
        -55.199387591000
 PlusStress:  xx          yy          zz          yz          xz          xy
        -0.19488     0.16056     1.06689    -0.18949    -0.55430     0.51543
 Feature   EFS_by	Qe
 Feature   mindist	3.063717
END_CFG

BEGIN_CFG
 Size
    1
 Supercell
         2.555084      2.555089      2.555093
        -2.555102      2.555106      2.555111
        -2.555115     -2.555120      2.555129
 AtomData:  id type       cartes_x      cartes_y      cartes_z           fx          fy          fz
             1    0       0.000000      0.000000      0.000000     0.000000    0.000000    0.000000
 Energy
        -13.988890825100
 PlusStress:  xx          yy          zz          yz          xz          xy
         0.00447     0.00453     0.00447     0.00000     0.00000     0.00000
 Feature   EFS_by	Qe
 Feature   mindist	4.425543
END_CFG

BEGIN_CFG
 Size
    2
 Supercell
         5.416770      0.000000      0.000000
         0.000000      5.416770      0.000000
         0.000000      0.000000      5.416775
 AtomData:  id type       cartes_x      cartes_y      cartes_z           fx          fy          fz
             1    0       0.000000      0.000000      0.000000     0.000000    0.000000    0.000000
             2    0       2.708385      2.708386      2.708403     0.000000    0.000000    0.000000
 Energy
        -27.940525045000
 PlusStress:  xx          yy          zz          yz          xz          xy
        -0.49163    -0.49163    -0.49163     0.00000     0.00000     0.00000
 Feature   EFS_by	Qe
 Feature   mindist	4.691052
END_CFG

BEGIN_CFG
 Size
    1
 Supercell
         2.427325      2.427325      2.427325
        -2.427329      2.427329      2.427329
        -2.427329     -2.427329      2.427329
 AtomData:  id type       cartes_x      cartes_y      cartes_z           fx          fy          fz
             1    0       0.000000      0.000000      0.000000     0.000000    0.000000    0.000000
 Energy
        -13.966802118600
 PlusStress:  xx          yy          zz          yz          xz          xy
         0.29598     0.29608     0.29603     0.00005     0.00000    -0.00000
 Feature   EFS_by	Qe
 Feature   mindist	4.204251
END_CFG

BEGIN_CFG
 Size
    2
 Supercell
         5.212364      0.000000      0.000000
         0.000000      5.212364      0.000000
         0.000000      0.000000      5.212370
 AtomData:  id type       cartes_x      cartes_y      cartes_z           fx          fy          fz
             1    0       0.000000      0.000000      0.000000     0.000000    0.000000    0.000000
             2    0       2.606183      2.606183      2.606200     0.000000    0.000000    0.000000
 Energy
        -27.980363602600
 PlusStress:  xx          yy          zz          yz          xz          xy
        -0.18138    -0.18138    -0.18138     0.00000     0.00000     0.00000
 Feature   EFS_by	Qe
 Feature   mindist	4.514032
END_CFG

BEGIN_CFG
 Size
    1
 Supercell
         2.299571      2.299571      2.299571
        -2.299575      2.299575      2.299575
        -2.299575     -2.299575      2.299575
 AtomData:  id type       cartes_x      cartes_y      cartes_z           fx          fy          fz
             1    0       0.000000      0.000000      0.000000     0.000000    0.000000    0.000000
 Energy
        -13.887733586000
 PlusStress:  xx          yy          zz          yz          xz          xy
         0.69781     0.69768     0.69786     0.00004    -0.00004     0.00004
 Feature   EFS_by	Qe
 Feature   mindist	3.982974
END_CFG

BEGIN_CFG
 Size
    4
 Supercell
         5.059055      0.000000      0.000000
         0.000000      5.059055      0.000000
         0.000000      0.000000     10.118110
 AtomData:  id type       cartes_x      cartes_y      cartes_z           fx          fy          fz
             1    0       1.988220      3.174781      2.892213     0.651356   -0.624625   -0.708550
             2    0       0.018049      0.354523      9.969887    -0.081530   -0.223321    0.319648
             3    0       0.520338      4.761404      4.571175    -0.627242    0.547131    0.746837
             4    0       2.532448      1.827402      7.861998     0.057415    0.300815   -0.357936
 Energy
        -55.308228100900
 PlusStress:  xx          yy          zz          yz          xz          xy
         0.52761    -0.04423     0.42442     0.40302    -0.58753    -0.60750
 Feature   EFS_by	Qe
 Feature   mindist	2.736962
END_CFG

BEGIN_CFG
 Size
    1
 Supercell
         2.299571      2.299571      2.299571
        -2.299575      2.299575      2.299575
        -2.299575     -2.299575      2.299575
 AtomData:  id type       cartes_x      cartes_y      cartes_z           fx          fy          fz
             1    0       0.000000      0.000000      0.000000     0.000000    0.000000    0.000000
 Energy
        -13.887733586000
 PlusStress:  xx          yy          zz          yz          xz          xy
         0.69781     0.69768     0.69786     0.00004    -0.00004     0.00004
 Feature   EFS_by	Qe
 Feature   mindist	3.982974
END_CFG

BEGIN_CFG
 Size
    4
 Supercell
         4.956852      0.000000      0.000000
         0.000000      4.956852      0.000000
         0.000000      0.000000      9.913704
 AtomData:  id type       cartes_x      cartes_y      cartes_z           fx          fy          fz
             1    0       2.780256      2.144812      2.704085    -0.101845    0.303609   -0.300317
             2    0       4.913590      4.904801      9.699131    -0.101368   -0.039766    0.223980
             3    0       0.179383      0.413992      4.671077    -0.015586   -0.319069    0.292350
             4    0       2.040475      2.450098      7.709965     0.218799    0.055226   -0.216013
 Energy
        -55.970014315300
 PlusStress:  xx          yy          zz          yz          xz          xy
         0.51305     0.22566     0.12569    -0.17489    -0.08476    -0.02840
 Feature   EFS_by	Qe
 Feature   mindist	3.523554
END_CFG

BEGIN_CFG
 Size
    4
 Supercell
         4.854649      0.000000      0.000000
         0.000000      4.854649      0.000000
         0.000000      0.000000      9.709298
 AtomData:  id type       cartes_x      cartes_y      cartes_z           fx          fy          fz
             1    0       0.033709     -0.031420     -0.135241    -0.069743    0.039049    0.085417
             2    0       2.292001      2.498211      2.448420     0.108518   -0.054560   -0.028507
             3    0       0.156259     -0.054205      4.959564    -0.131812    0.052635   -0.050189
             4    0       2.372680      2.442063      7.291204     0.093037   -0.037124   -0.006721
 Energy
        -56.226430335100
 PlusStress:  xx          yy          zz          yz          xz          xy
         0.40276     0.48596     0.50991     0.00399    -0.00210    -0.02689
 Feature   EFS_by	Qe
 Feature   mindist	3.988863
END_CFG

BEGIN_CFG
 Size
    1
 Supercell
         3.193853      3.193858      3.193864
        -3.193869      3.193875      3.193880
        -3.193886     -3.193891      3.193897
 AtomData:  id type       cartes_x      cartes_y      cartes_z           fx          fy          fz
             1    0       0.000000      0.000000      0.000000     0.000000    0.000000    0.000000
 Energy
        -13.737094482300
 PlusStress:  xx          yy          zz          yz          xz          xy
        -0.61299    -0.61299    -0.61299    -0.00000     0.00000     0.00012
 Feature   EFS_by	Qe
 Feature   mindist	5.531924
END_CFG

BEGIN_CFG
 Size
    1
 Supercell
         2.555084      2.555089      2.555093
        -2.555102      2.555106      2.555111
        -2.555115     -2.555120      2.555129
 AtomData:  id type       cartes_x      cartes_y      cartes_z           fx          fy          fz
             1    0       0.000000      0.000000      0.000000     0.000000    0.000000    0.000000
 Energy
        -13.988890825100
 PlusStress:  xx          yy          zz          yz          xz          xy
         0.00447     0.00453     0.00447     0.00000     0.00000     0.00000
 Feature   EFS_by	Qe
 Feature   mindist	4.425543
END_CFG

BEGIN_CFG
 Size
    8
 Supercell
         4.854649      0.000000      0.000000
         0.000000      9.709298      0.000000
         0.000000      0.000000      9.709298
 AtomData:  id type       cartes_x      cartes_y      cartes_z           fx          fy          fz
             1    0       0.902413      4.288558      3.991175     0.004549    0.030968   -0.147935
             2    0       3.509134      2.359843      1.422383     0.207494    0.483496   -0.325570
             3    0       0.448712      7.285039      1.148528    -0.015868    0.046779    0.088212
             4    0       2.594811      0.075025      3.151237    -0.287196   -0.237480    0.410562
             5    0       4.398231      0.364764      8.139423    -0.308213   -0.702277    0.217509
             6    0       1.311323      2.398703      6.923303     0.307230    0.360614   -0.312222
             7    0       2.720043      5.237899      8.798198     0.049064    0.037776   -0.134783
             8    0       3.533928      7.118061      5.262941     0.042939   -0.019876    0.204226
 Energy
       -111.019992893000
 PlusStress:  xx          yy          zz          yz          xz          xy
        -0.21094     3.66116     1.90054    -1.52279    -0.46600     0.83997
 Feature   EFS_by	Qe
 Feature   mindist	2.956479
END_CFG

BEGIN_CFG
 Size
    1
 Supercell
         2.555086      3.066094      3.066094
        -2.555101      2.555106      2.555111
        -2.555116     -2.555121      2.555126
 AtomData:  id type       cartes_x      cartes_y      cartes_z           fx          fy          fz
             1    0       0.000000      0.000000      0.000000     0.000000    0.000000    0.000000
 Energy
        -13.970625454400
 PlusStress:  xx          yy          zz          yz          xz          xy
        -0.13087    -0.14496    -0.11227    -0.08875    -0.10358    -0.07029
 Feature   EFS_by	Qe
 Feature   mindist	4.425574
END_CFG

BEGIN_CFG
 Size
    4
 Supercell
         4.854649      0.000000      0.000000
         0.000000      4.854649      0.000000
         0.000000      0.000000      9.709298
 AtomData:  id type       cartes_x      cartes_y      cartes_z           fx          fy          fz
             1    0       0.033709     -0.031420     -0.135241    -0.069743    0.039049    0.085417
             2    0       2.292001      2.498211      2.448420     0.108518   -0.054560   -0.028507
             3    0       0.156259     -0.054205      4.959564    -0.131812    0.052635   -0.050189
             4    0       2.372680      2.442063      7.291204     0.093037   -0.037124   -0.006721
 Energy
        -56.226430335100
 PlusStress:  xx          yy          zz          yz          xz          xy
         0.40276     0.48596     0.50991     0.00399    -0.00210    -0.02689
 Feature   EFS_by	Qe
 Feature   mindist	3.988863
END_CFG

BEGIN_CFG
 Size
    4
 Supercell
         5.365664      0.000000      0.000000
         0.000000      5.365664      0.000000
         0.000000      0.000000     10.731328
 AtomData:  id type       cartes_x      cartes_y      cartes_z           fx          fy          fz
             1    0       2.638237      4.347136      3.720792     0.084201   -0.286095   -0.313130
             2    0       0.117646      0.941816      5.291386    -0.058821    0.311513    0.249282
             3    0       5.004188      1.480885      9.562350     0.310695   -0.114996    0.338561
             4    0       2.971257      3.961491      8.253792    -0.336076    0.089577   -0.274713
 Energy
        -55.476077181800
 PlusStress:  xx          yy          zz          yz          xz          xy
         0.23063     0.18751    -0.64989     0.20878     0.16850    -0.22126
 Feature   EFS_by	Qe
 Feature   mindist	3.463890
END_CFG

BEGIN_CFG
 Size
    2
 Supercell
         5.007954      0.000000      0.000000
         0.000000      5.007954      0.000000
         0.000000      0.000000      5.007959
 AtomData:  id type       cartes_x      cartes_y      cartes_z           fx          fy          fz
             1    0       0.000000      0.000000      0.000000     0.000000    0.000000    0.000000
             2    0       2.503977      2.503978      2.503994     0.000000    0.000000    0.000000
 Energy
        -27.979489300800
 PlusStress:  xx          yy          zz          yz          xz          xy
         0.21634     0.21634     0.21634     0.00000     0.00000     0.00000
 Feature   EFS_by	Qe
 Feature   mindist	4.337007
END_CFG

BEGIN_CFG
 Size
    1
 Supercell
         2.555083      5.110166      5.110174
        -2.555099      2.555106      2.555114
        -2.555114     -2.555122      2.555129
 AtomData:  id type       cartes_x      cartes_y      cartes_z           fx          fy          fz
             1    0       0.000000      0.000000      0.000000     0.000000    0.000000    0.000000
 Energy
        -13.814578087700
 PlusStress:  xx          yy          zz          yz          xz          xy
        -0.27899    -0.22707    -0.24325     0.00009    -0.26438     0.00000
 Feature   EFS_by	Qe
 Feature   mindist	4.425574
END_CFG

BEGIN_CFG
 Size
    1
 Supercell
         2.044064      2.044064      2.044064
        -2.044067      2.044067      2.044067
        -2.044067     -2.044067      2.044067
 AtomData:  id type       cartes_x      cartes_y      cartes_z           fx          fy          fz
             1    0       0.000000      0.000000      0.000000     0.000000    0.000000    0.000000
 Energy
        -13.426178274100
 PlusStress:  xx          yy          zz          yz          xz          xy
         2.03698     2.03698     2.03695     0.00000     0.00006     0.00006
 Feature   EFS_by	Qe
 Feature   mindist	3.540422
END_CFG

BEGIN_CFG
 Size
    1
 Supercell
         2.555087      4.088125      4.088131
        -2.555099      2.555106      2.555112
        -2.555118     -2.555118      2.555125
 AtomData:  id type       cartes_x      cartes_y      cartes_z           fx          fy          fz
             1    0       0.000000      0.000000      0.000000     0.000000    0.000000    0.000000
 Energy
        -13.889475250800
 PlusStress:  xx          yy          zz          yz          xz          xy
        -0.30208    -0.23192    -0.21926    -0.05193    -0.23335    -0.01107
 Feature   EFS_by	Qe
 Feature   mindist	4.425573
END_CFG

BEGIN_CFG
 Size
    4
 Supercell
         5.365664      0.000000      0.000000
         0.000000      5.365664      0.000000
         0.000000      0.000000     10.731328
 AtomData:  id type       cartes_x      cartes_y      cartes_z           fx          fy          fz
             1    0       2.086904      2.395557      3.329159     0.046047    0.212838   -0.113993
             2    0       0.464395      0.486568      0.159092    -0.051331   -0.135963   -0.046050
             3    0       4.711906      0.020861      4.880675     0.135434   -0.185616    0.042410
             4    0       3.468123      2.462679      7.728067    -0.130151    0.108742    0.117634
 Energy
        -55.776087066600
 PlusStress:  xx          yy          zz          yz          xz          xy
        -0.95541    -0.52026    -0.44452     0.00681     0.13219     0.00113
 Feature   EFS_by	Qe
 Feature   mindist	3.864844
END_CFG

BEGIN_CFG
 Size
    2
 Supercell
         5.621175      0.000000      0.000000
         0.000000      5.621175      0.000000
         0.000000      0.000000      5.621180
 AtomData:  id type       cartes_x      cartes_y      cartes_z           fx          fy          fz
             1    0       0.000000      0.000000      0.000000     0.000000    0.000000    0.000000
             2    0       2.810588      2.810589      2.810607     0.000000    0.000000    0.000000
 Energy
        -27.871577107300
 PlusStress:  xx          yy          zz          yz          xz          xy
        -0.73386    -0.73386    -0.73386     0.00000     0.00000     0.00000
 Feature   EFS_by	Qe
 Feature   mindist	4.868071
END_CFG

BEGIN_CFG
 Size
    4
 Supercell
         4.854649      0.000000      0.000000
         0.000000      4.854649      0.000000
         0.000000      0.000000      9.709298
 AtomData:  id type       cartes_x      cartes_y      cartes_z           fx          fy          fz
             1    0       2.672841      2.166602      2.939726    -0.019078    0.421375   -0.502381
             2    0       4.769390      4.719094      9.540654    -0.072367   -0.019270    0.219232
             3    0       0.247844      0.497638      4.461381    -0.107883   -0.501149    0.369944
             4    0       2.019222      2.325964      7.331483     0.199329    0.099044   -0.086795
 Energy
        -55.816773530900
 PlusStress:  xx          yy          zz          yz          xz          xy
         1.35093     0.59163     0.51453    -0.18278    -0.09349     0.07143
 Feature   EFS_by	Qe
 Feature   mindist	3.313833
END_CFG

BEGIN_CFG
 Size
    4
 Supercell
         5.263461      0.000000      0.000000
         0.000000      5.263461      0.000000
         0.000000      0.000000     10.526922
 AtomData:  id type       cartes_x      cartes_y      cartes_z           fx          fy          fz
             1    0       2.620947      2.606744      1.884171     0.000946    0.036506    0.275167
             2    0      -0.012225      0.057317      0.221269    -0.002922   -0.043920   -0.223688
             3    0       0.067755      5.269593      6.061064    -0.053601   -0.022066   -0.290679
             4    0       2.586985      2.593269      7.623880     0.055576    0.029481    0.239199
 Energy
        -55.849869243100
 PlusStress:  xx          yy          zz          yz          xz          xy
        -0.04847    -0.04472    -1.03547     0.06480     0.05971     0.00509
 Feature   EFS_by	Qe
 Feature   mindist	3.934742
END_CFG

BEGIN_CFG
 Size
    8
 Supercell
         4.854649      0.000000      0.000000
         0.000000      9.709298      0.000000
         0.000000      0.000000      9.709298
 AtomData:  id type       cartes_x      cartes_y      cartes_z           fx          fy          fz
             1    0       3.803274      2.058154      5.014277     0.077129    0.010249   -0.150608
             2    0       4.437691      2.579295      0.383309     0.158012   -0.080725    0.137490
             3    0       3.499088      4.904061      2.345531    -0.170718    0.444745    0.288799
             4    0       1.139956      8.463470      1.409829    -0.135502    0.057193    0.368181
             5    0       2.227244      4.752422      7.526900    -0.216916   -0.616955   -0.443721
             6    0       1.928005      1.076936      8.246009     0.006074   -0.304960   -0.336931
             7    0       2.466592      6.875836      8.292647     0.244117    0.568397    0.376370
             8    0       4.771393      8.127015      5.618687     0.037804   -0.077945   -0.239580
 Energy
       -110.311840790000
 PlusStress:  xx          yy          zz          yz          xz          xy
        -0.86266     4.48642     2.27283     0.77778    -1.12318    -1.03620
 Feature   EFS_by	Qe
 Feature   mindist	2.269921
END_CFG

BEGIN_CFG
 Size
    4
 Supercell
         5.365664      0.000000      0.000000
         0.000000      5.365664      0.000000
         0.000000      0.000000     10.731328
 AtomData:  id type       cartes_x      cartes_y      cartes_z           fx          fy          fz
             1    0       3.294991      2.223752      3.488345    -0.473459    0.699073   -0.623361
             2    0       1.178045      0.279123      0.343635    -0.088010   -0.093715    0.090515
             3    0       4.276881      0.137802      4.642121     0.581170   -0.650483    0.597186
             4    0       1.981412      2.724988      7.622892    -0.019700    0.045125   -0.064340
 Energy
        -54.947389611800
 PlusStress:  xx          yy          zz          yz          xz          xy
        -1.80728     1.18178    -0.29927    -0.53472     0.35970    -0.48508
 Feature   EFS_by	Qe
 Feature   mindist	2.578080
END_CFG

BEGIN_CFG
 Size
    6
 Supercell
         4.854649      0.000000      0.000000
         0.000000      4.854649      0.000000
         0.000000      0.000000     14.563947
 AtomData:  id type       cartes_x      cartes_y      cartes_z           fx          fy          fz
             1    0      -0.032148      0.013269      0.528542    -0.011205    0.024887   -0.548054
             2    0       2.364757      2.493635      2.261523     0.046334   -0.060109    0.065516
             3    0       4.868505     -0.014259      4.329049    -0.031034    0.034738    0.470189
             4    0       2.394708      2.465807      7.837369     0.020176   -0.030307   -0.493632
             5    0       0.030093      4.811315      9.843886     0.001339    0.025638   -0.046010
             6    0       2.510707      2.366854     11.609496    -0.025609    0.005153    0.551991
 Energy
        -83.860593269400
 PlusStress:  xx          yy          zz          yz          xz          xy
         1.67090     1.66901     1.59937     0.03372    -0.04696    -0.01008
 Feature   EFS_by	Qe
 Feature   mindist	3.775207
END_CFG

BEGIN_CFG
 Size
    4
 Supercell
         4.956852      0.000000      0.000000
         0.000000      4.956852      0.000000
         0.000000      0.000000      9.913704
 AtomData:  id type       cartes_x      cartes_y      cartes_z           fx          fy          fz
             1    0       2.609435      2.562890      2.085155    -0.024106   -0.148905    0.223360
             2    0       0.063196      4.881335      0.614307    -0.026775    0.128288   -0.400823
             3    0       0.143078      4.846335      4.505350    -0.047339    0.074188    0.251534
             4    0       2.141143      2.579996      7.665743     0.098219   -0.053571   -0.074072
 Energy
        -56.009498852700
 PlusStress:  xx          yy          zz          yz          xz          xy
         0.38087     0.41576     0.66177    -0.01677    -0.00738    -0.02482
 Feature   EFS_by	Qe
 Feature   mindist	3.653715
END_CFG

BEGIN_CFG
 Size
    1
 Supercell
         1.916316      1.916319      1.916326
        -1.916329      1.916336      1.916342
        -1.916346     -1.916352      1.916356
 AtomData:  id type       cartes_x      cartes_y      cartes_z           fx          fy          fz
             1    0       0.000000      0.000000      0.000000     0.000000    0.000000    0.000000
 Energy
        -12.934274239300
 PlusStress:  xx          yy          zz          yz          xz          xy
         3.07321     3.07300     3.07303     0.00000    -0.00003     0.00008
 Feature   EFS_by	Qe
 Feature   mindist	3.319164
END_CFG

BEGIN_CFG
 Size
    4
 Supercell
         5.365664      0.000000      0.000000
         0.000000      5.365664      0.000000
         0.000000      0.000000     10.731328
 AtomData:  id type       cartes_x      cartes_y      cartes_z           fx          fy          fz
             1    0       2.651759      2.580419      1.619028    -0.140289   -0.091035    0.298746
             2    0       0.232326      0.387206      6.426716     0.011827   -0.090787   -0.245758
             3    0       4.954955      5.029788     10.472339     0.265906    0.174687    0.027824
             4    0       2.892289      2.733915      8.310238    -0.137443    0.007135   -0.080812
 Energy
        -55.703465183500
 PlusStress:  xx          yy          zz          yz          xz          xy
        -0.34551    -0.25162     0.18297     0.12396    -0.05390     0.21020
 Feature   EFS_by	Qe
 Feature   mindist	3.768329
END_CFG

BEGIN_CFG
 Size
    1
 Supercell
         2.938341      2.938341      2.938341
        -2.938341      2.938346      2.938346
        -2.938346     -2.938346      2.938346
 AtomData:  id type       cartes_x      cartes_y      cartes_z           fx          fy          fz
             1    0       0.000000      0.000000      0.000000     0.000000    0.000000    0.000000
 Energy
        -13.875878673600
 PlusStress:  xx          yy          zz          yz          xz          xy
        -0.47806    -0.47806    -0.47797     0.00000     0.00000    -0.00000
 Feature   EFS_by	Qe
 Feature   mindist	5.089356
END_CFG

BEGIN_CFG
 Size
    6
 Supercell
         4.854649      0.000000      0.000000
         0.000000      4.854649      0.000000
         0.000000      0.000000     14.563947
 AtomData:  id type       cartes_x      cartes_y      cartes_z           fx          fy          fz
             1    0       4.606170      4.348931      1.947698     0.181160   -0.167375    0.108659
             2    0       2.028428      1.752904      4.082709     0.091857   -0.012157    0.417904
             3    0       2.531956      1.782656      0.604845    -0.185149    0.110034   -0.651906
             4    0       0.460200      3.675621      7.135767    -0.090851    0.073081    0.145061
             5    0       2.531682      1.534830     11.202333    -0.133179   -0.104214   -0.263377
             6    0       4.832835      3.896328     11.436513     0.136162    0.100631    0.243659
 Energy
        -83.220658478400
 PlusStress:  xx          yy          zz          yz          xz          xy
         2.64786     2.95386     0.69206     0.22659    -0.10305    -0.08099
 Feature   EFS_by	Qe
 Feature   mindist	3.305574
END_CFG

BEGIN_CFG
 Size
    4
 Supercell
         5.059055      0.000000      0.000000
         0.000000      5.059055      0.000000
         0.000000      0.000000     10.118110
 AtomData:  id type       cartes_x      cartes_y      cartes_z           fx          fy          fz
             1    0       1.560080      2.649200      2.808159    -0.043241    0.039983   -0.078376
             2    0       3.702558      4.925173      9.722881    -0.049327   -0.062118    0.170255
             3    0       3.994326      0.430469      5.498965    -0.346606   -0.455844   -0.464607
             4    0       0.861146      2.113268      7.265270     0.439174    0.477978    0.372728
 Energy
        -55.857191691100
 PlusStress:  xx          yy          zz          yz          xz          xy
         0.21637    -0.15931     0.46270     0.19450     0.29412     0.44962
 Feature   EFS_by	Qe
 Feature   mindist	3.108157
END_CFG

BEGIN_CFG
 Size
    6
 Supercell
         4.854649      0.000000      0.000000
         0.000000      4.854649      0.000000
         0.000000      0.000000     14.563947