BEGIN_CFG
 Size
    6
 Supercell
         4.956852      0.000000      0.000000
         0.000000      4.956852      0.000000
         0.000000      0.000000     14.870556
 AtomData:  id type       cartes_x      cartes_y      cartes_z           fx          fy          fz
             1    0       2.627394      4.369676      2.413415    -0.054161   -0.145144    0.113005
             2    0       4.940691      1.739344      0.829728     0.277359    0.008311   -0.138344
             3    0       0.355295      1.602718      4.712634    -0.207373    0.136223    0.042748
             4    0       2.463537      4.186893      6.471831     0.055991   -0.113852    0.192778
             5    0       3.492797      1.480867      9.461011     0.103034    0.047786    0.113516
             6    0       3.469268      3.969483     13.287770    -0.174850    0.066676   -0.323703
 Energy
        -83.670468811900
 PlusStress:  xx          yy          zz          yz          xz          xy
         0.11071     1.46702     2.16145    -0.10098     0.70483    -0.08756
 Feature   EFS_by	Qe
 Feature   mindist	3.599838
END_CFG

BEGIN_CFG
 Size
    2
 Supercell
         4.854649      0.000000      0.000000
         0.000000      4.854649      0.000000
         0.000000      0.000000      4.854649
 AtomData:  id type       cartes_x      cartes_y      cartes_z           fx          fy          fz
             1    0       0.272378      4.572757      4.619893    -0.343808    0.351021    0.311822
             2    0       2.154946      2.709216      2.662079     0.343808   -0.351021   -0.311822
 Energy
        -27.888789125300
 PlusStress:  xx          yy          zz          yz          xz          xy
         0.41232     0.38343     0.52220     0.22407    -0.21966    -0.24592
 Feature   EFS_by	Qe
 Feature   mindist	3.293916
END_CFG

BEGIN_CFG
 Size
    2
 Supercell
         4.956852      0.000000      0.000000
         0.000000      4.956852      0.000000
         0.000000      0.000000      4.956852
 AtomData:  id type       cartes_x      cartes_y      cartes_z           fx          fy          fz
             1    0       0.207281      4.777745      4.725684    -0.221745    0.196936    0.240915
             2    0       2.271145      2.657533      2.709594     0.221745   -0.196936   -0.240915
 Energy
        -28.008320036400
 PlusStress:  xx          yy          zz          yz          xz          xy
         0.13665     0.18842     0.08912     0.12603    -0.14235    -0.11563
 Feature   EFS_by	Qe
 Feature   mindist	3.580426
END_CFG

BEGIN_CFG
 Size
    2
 Supercell
         4.854649      0.000000      0.000000
         0.000000      4.854649      0.000000
         0.000000      0.000000      4.854649
 AtomData:  id type       cartes_x      cartes_y      cartes_z           fx          fy          fz
             1    0      -0.188184     -0.021848      0.018678     0.198284    0.025165   -0.021445
             2    0       2.615508      2.449173      2.408647    -0.198284   -0.025165    0.021445
 Energy
        -28.094201347600
 PlusStress:  xx          yy          zz          yz          xz          xy
         0.13341     0.31189     0.31220    -0.00126    -0.01093     0.01282
 Feature   EFS_by	Qe
 Feature   mindist	3.949691
END_CFG

BEGIN_CFG
 Size
    2
 Supercell
         5.365664      0.000000      0.000000
         0.000000      5.365664      0.000000
         0.000000      0.000000      5.365664
 AtomData:  id type       cartes_x      cartes_y      cartes_z           fx          fy          fz
             1    0       4.762427      5.056136      2.225302     0.491465    0.467652    0.516401
             2    0       3.286069      2.992360      0.457531    -0.491465   -0.467652   -0.516401
 Energy
        -27.542064501700
 PlusStress:  xx          yy          zz          yz          xz          xy
        -0.35714     0.52579     0.04794     0.57571     0.60522     0.54763
 Feature   EFS_by	Qe
 Feature   mindist	3.092542
END_CFG

BEGIN_CFG
 Size
    2
 Supercell
         5.263461      0.000000      0.000000
         0.000000      5.263461      0.000000
         0.000000      0.000000      5.263461
 AtomData:  id type       cartes_x      cartes_y      cartes_z           fx          fy          fz
             1    0       0.130604     -0.061757     -0.016090    -0.086093    0.042159    0.011106
             2    0       2.501127      2.693488      2.647821     0.086093   -0.042159   -0.011106
 Energy
        -28.074378261100
 PlusStress:  xx          yy          zz          yz          xz          xy
        -0.49564    -0.46431    -0.45534     0.00268    -0.00562    -0.02129
 Feature   EFS_by	Qe
 Feature   mindist	4.320670
END_CFG

BEGIN_CFG
 Size
    2
 Supercell
         4.854649      0.000000      0.000000
         0.000000      4.854649      0.000000
         0.000000      0.000000      4.854649
 AtomData:  id type       cartes_x      cartes_y      cartes_z           fx          fy          fz
             1    0       0.051384     -0.048271     -0.021822    -0.056223    0.052836    0.023940
             2    0       2.375940      2.475595      2.449147     0.056223   -0.052836   -0.023940
 Energy
        -28.127163996100
 PlusStress:  xx          yy          zz          yz          xz          xy
         0.21251     0.21398     0.22386     0.00336    -0.00368    -0.00788
 Feature   EFS_by	Qe
 Feature   mindist	4.064239
END_CFG

BEGIN_CFG
 Size
    2
 Supercell
         5.059055      0.000000      0.000000
         0.000000      5.059055      0.000000
         0.000000      0.000000      5.059055
 AtomData:  id type       cartes_x      cartes_y      cartes_z           fx          fy          fz
             1    0       0.109460     -0.070982     -0.021640    -0.094613    0.062519    0.019293
             2    0       2.420068      2.600510      2.551167     0.094613   -0.062519   -0.019293
 Energy
        -28.118082604200
 PlusStress:  xx          yy          zz          yz          xz          xy
        -0.19022    -0.16466    -0.14777     0.00464    -0.00713    -0.02306
 Feature   EFS_by	Qe
 Feature   mindist	4.149794
END_CFG

BEGIN_CFG
 Size
    2
 Supercell
         5.263461      0.000000      0.000000
         0.000000      5.263461      0.000000
         0.000000      0.000000      5.263461
 AtomData:  id type       cartes_x      cartes_y      cartes_z           fx          fy          fz
             1    0       5.396885      0.230491      0.340031    -0.118935   -0.187337   -0.236207
             2    0       2.498307      2.401240      2.291699     0.118935    0.187337    0.236207
 Energy
        -27.956752555100
 PlusStress:  xx          yy          zz          yz          xz          xy
        -0.16910    -0.28022    -0.43526     0.18971     0.11956     0.09318
 Feature   EFS_by	Qe
 Feature   mindist	3.756838
END_CFG

BEGIN_CFG
 Size
    2
 Supercell
         5.365664      0.000000      0.000000
         0.000000      5.365664      0.000000
         0.000000      0.000000      5.365664
 AtomData:  id type       cartes_x      cartes_y      cartes_z           fx          fy          fz
             1    0       4.749311     -0.006758      0.037474     0.259420    0.006688   -0.037343
             2    0       3.299185      2.689590      2.645358    -0.259420   -0.006688    0.037343
 Energy
        -27.865654004900
 PlusStress:  xx          yy          zz          yz          xz          xy
        -0.75897    -0.04681    -0.05220    -0.00113    -0.04255     0.00766
 Feature   EFS_by	Qe
 Feature   mindist	4.003645
END_CFG

BEGIN_CFG
 Size
    2
 Supercell
         5.365664      0.000000      0.000000
         0.000000      5.365664      0.000000
         0.000000      0.000000      5.365664
 AtomData:  id type       cartes_x      cartes_y      cartes_z           fx          fy          fz
             1    0       5.295760      0.350485      0.752458     0.103844   -0.377777   -0.335050
             2    0       2.752736      2.332347      1.930374    -0.103844    0.377777    0.335050
 Energy
        -27.652323813400
 PlusStress:  xx          yy          zz          yz          xz          xy
         0.61174     0.04000    -0.77797     0.37544    -0.10226    -0.11163
 Feature   EFS_by	Qe
 Feature   mindist	3.432526
END_CFG

BEGIN_CFG
 Size
    2
 Supercell
         5.263461      0.000000      0.000000
         0.000000      5.263461      0.000000
         0.000000      0.000000      5.263461
 AtomData:  id type       cartes_x      cartes_y      cartes_z           fx          fy          fz
             1    0       4.396339     -0.015591      0.002875     0.263123    0.022138   -0.004086
             2    0       3.498852      2.647321      2.628856    -0.263123   -0.022138    0.004086
 Energy
        -27.730036266500
 PlusStress:  xx          yy          zz          yz          xz          xy
        -0.95380     0.56620     0.56767    -0.00027    -0.00308     0.01687
 Feature   EFS_by	Qe
 Feature   mindist	3.803172
END_CFG

BEGIN_CFG
 Size
    2
 Supercell
         5.059055      0.000000      0.000000
         0.000000      5.059055      0.000000
         0.000000      0.000000      5.059055
 AtomData:  id type       cartes_x      cartes_y      cartes_z           fx          fy          fz
             1    0       5.082154      0.518227      5.064200    -0.028551   -0.342380   -0.006363
             2    0       2.506428      2.011301      2.524382     0.028551    0.342380    0.006363
 Energy
        -27.928427679200
 PlusStress:  xx          yy          zz          yz          xz          xy
         0.37960    -0.53046     0.38245     0.00618     0.00048     0.02758
 Feature   EFS_by	Qe
 Feature   mindist	3.839628
END_CFG

BEGIN_CFG
 Size
    2
 Supercell
         5.263461      0.000000      0.000000
         0.000000      5.263461      0.000000
         0.000000      0.000000      5.263461
 AtomData:  id type       cartes_x      cartes_y      cartes_z           fx          fy          fz
             1    0      -0.220087     -0.079176      0.009654     0.142208    0.057446   -0.007115
             2    0       2.851818      2.710906      2.622077    -0.142208   -0.057446    0.007115
 Energy
        -28.052297854000
 PlusStress:  xx          yy          zz          yz          xz          xy
        -0.50702    -0.40728    -0.39054    -0.00214    -0.00549     0.04458
 Feature   EFS_by	Qe
 Feature   mindist	4.212514
END_CFG

BEGIN_CFG
 Size
    2
 Supercell
         5.365664      0.000000      0.000000
         0.000000      5.365664      0.000000
         0.000000      0.000000      5.365664
 AtomData:  id type       cartes_x      cartes_y      cartes_z           fx          fy          fz
             1    0       0.094289     -0.089610     -0.033988    -0.054900    0.052245    0.020142
             2    0       2.588543      2.772443      2.716820     0.054900   -0.052245   -0.020142
 Energy
        -28.045331058900
 PlusStress:  xx          yy          zz          yz          xz          xy
        -0.61146    -0.60990    -0.59656     0.00766    -0.00808    -0.02085
 Feature   EFS_by	Qe
 Feature   mindist	4.396230
END_CFG

BEGIN_CFG
 Size
    2
 Supercell
         4.854649      0.000000      0.000000
         0.000000      4.854649      0.000000
         0.000000      0.000000      4.854649
 AtomData:  id type       cartes_x      cartes_y      cartes_z           fx          fy          fz
             1    0       0.054596     -0.025190     -0.014403    -0.059532    0.027593    0.015818
             2    0       2.372728      2.452514      2.441727     0.059532   -0.027593   -0.015818
 Energy
        -28.128946341900
 PlusStress:  xx          yy          zz          yz          xz          xy
         0.20590     0.21808     0.22050     0.00116    -0.00252    -0.00441
 Feature   EFS_by	Qe
 Feature   mindist	4.095913
END_CFG

BEGIN_CFG
 Size
    6
 Supercell
         4.854649      0.000000      0.000000
         0.000000      4.854649      0.000000
         0.000000      0.000000     14.563947
 AtomData:  id type       cartes_x      cartes_y      cartes_z           fx          fy          fz
             1    0       2.290039      0.262543      3.361942     0.300452   -0.114995   -0.381251
             2    0       0.422117      2.488859      5.035857    -0.487525    0.438487   -0.533353
             3    0       0.904023      1.687999      7.547837     0.162864   -0.575458    0.365088
             4    0       3.279667      3.486270      9.226774    -0.017321    0.330486    0.131912
             5    0       4.458095      3.192913     14.472888    -0.071368    0.001287    0.143161
             6    0       0.782680      1.018038     11.328512     0.112898   -0.079807    0.274444
 Energy
        -83.068158524000
 PlusStress:  xx          yy          zz          yz          xz          xy
         0.78156     1.18274     3.17037     0.18783    -0.42135    -0.28143
 Feature   EFS_by	Qe
 Feature   mindist	2.680234
END_CFG

BEGIN_CFG
 Size
    2
 Supercell
         5.059055      0.000000      0.000000
         0.000000      5.059055      0.000000
         0.000000      0.000000      5.059055
 AtomData:  id type       cartes_x      cartes_y      cartes_z           fx          fy          fz
             1    0       0.085844     -0.050983     -0.016404    -0.074141    0.044691    0.014514
             2    0       2.443683      2.580510      2.545931     0.074141   -0.044691   -0.014514
 Energy
        -28.124381768000
 PlusStress:  xx          yy          zz          yz          xz          xy
        -0.19081    -0.17310    -0.16454     0.00250    -0.00428    -0.01308
 Feature   EFS_by	Qe
 Feature   mindist	4.205481
END_CFG

BEGIN_CFG
 Size
    2
 Supercell
         5.161258      0.000000      0.000000
         0.000000      5.161258      0.000000
         0.000000      0.000000      5.161258
 AtomData:  id type       cartes_x      cartes_y      cartes_z           fx          fy          fz
             1    0       0.102677     -0.092532     -0.034291    -0.078697    0.071268    0.026896
             2    0       2.477952      2.673161      2.614920     0.078697   -0.071268   -0.026896
 Energy
        -28.098010669500
 PlusStress:  xx          yy          zz          yz          xz          xy
        -0.33667    -0.33049    -0.30840     0.00909    -0.01010    -0.02676
 Feature   EFS_by	Qe
 Feature   mindist	4.206072
END_CFG

BEGIN_CFG
 Size
    2
 Supercell
         5.059055      0.000000      0.000000
         0.000000      5.059055      0.000000
         0.000000      0.000000      5.059055
 AtomData:  id type       cartes_x      cartes_y      cartes_z           fx          fy          fz
             1    0      -0.029408      0.116821      0.140030     0.026905   -0.103484   -0.122092
             2    0       2.558935      2.412707      2.389497    -0.026905    0.103484    0.122092
 Energy
        -28.103513083900
 PlusStress:  xx          yy          zz          yz          xz          xy
        -0.10842    -0.15717    -0.17880     0.04779    -0.01236    -0.01046
 Feature   EFS_by	Qe
 Feature   mindist	4.054086
END_CFG

BEGIN_CFG
 Size
    2
 Supercell
         5.365664      0.000000      0.000000
         0.000000      5.365664      0.000000
         0.000000      0.000000      5.365664
 AtomData:  id type       cartes_x      cartes_y      cartes_z           fx          fy          fz
             1    0       4.448513      0.003299      5.371274     0.227143   -0.004466   -0.007519
             2    0       3.599983      2.679533      2.677222    -0.227143    0.004466    0.007519
 Energy
        -27.714462646100
 PlusStress:  xx          yy          zz          yz          xz          xy
        -0.96420     0.42381     0.42395     0.00014    -0.00567    -0.00355
 Feature   EFS_by	Qe
 Feature   mindist	3.875532
END_CFG

BEGIN_CFG
 Size
    1
 Supercell
         2.555084      2.555089      2.555093
        -2.555102      2.555106      2.555111
        -2.555115     -2.555120      2.555129
 AtomData:  id type       cartes_x      cartes_y      cartes_z           fx          fy          fz
             1    0       0.000000      0.000000      0.000000     0.000000    0.000000    0.000000
 Energy
        -13.988890825100
 PlusStress:  xx          yy          zz          yz          xz          xy
         0.00447     0.00453     0.00447     0.00000     0.00000     0.00000
 Feature   EFS_by	Qe
 Feature   mindist	4.425543
END_CFG

BEGIN_CFG
 Size
    2
 Supercell
         5.416770      0.000000      0.000000
         0.000000      5.416770      0.000000
         0.000000      0.000000      5.416775
 AtomData:  id type       cartes_x      cartes_y      cartes_z           fx          fy          fz
             1    0       0.000000      0.000000      0.000000     0.000000    0.000000    0.000000
             2    0       2.708385      2.708386      2.708403     0.000000    0.000000    0.000000
 Energy
        -27.940525045000
 PlusStress:  xx          yy          zz          yz          xz          xy
        -0.49163    -0.49163    -0.49163     0.00000     0.00000     0.00000
 Feature   EFS_by	Qe
 Feature   mindist	4.691052
END_CFG

BEGIN_CFG
 Size
    2
 Supercell
         5.365664      0.000000      0.000000
         0.000000      5.365664      0.000000
         0.000000      0.000000      5.365664
 AtomData:  id type       cartes_x      cartes_y      cartes_z           fx          fy          fz
             1    0       0.323135      4.275919      2.651956    -0.457687    0.190149    0.061753
             2    0       2.359697      3.772578      5.396540     0.457687   -0.190149   -0.061753
 Energy
        -27.494980640500
 PlusStress:  xx          yy          zz          yz          xz          xy
         0.46650    -1.11030     1.15710     0.02823    -0.06794    -0.20963
 Feature   EFS_by	Qe
 Feature   mindist	3.357230
END_CFG

BEGIN_CFG
 Size
    1
 Supercell
         2.427325      2.427325      2.427325
        -2.427329      2.427329      2.427329
        -2.427329     -2.427329      2.427329
 AtomData:  id type       cartes_x      cartes_y      cartes_z           fx          fy          fz
             1    0       0.000000      0.000000      0.000000     0.000000    0.000000    0.000000
 Energy
        -13.966802118600
 PlusStress:  xx          yy          zz          yz          xz          xy
         0.29598     0.29608     0.29603     0.00005     0.00000    -0.00000
 Feature   EFS_by	Qe
 Feature   mindist	4.204251
END_CFG

BEGIN_CFG
 Size
    2
 Supercell
         4.854649      0.000000      0.000000
         0.000000      4.854649      0.000000
         0.000000      0.000000      4.854649
 AtomData:  id type       cartes_x      cartes_y      cartes_z           fx          fy          fz
             1    0       0.394719      0.525271      4.529288    -0.659350   -0.662704    0.622108
             2    0       2.032606      1.902053      2.752685     0.659350    0.662704   -0.622108
 Energy
        -27.416804097200
 PlusStress:  xx          yy          zz          yz          xz          xy
         0.83818     0.17669     1.20134    -0.56296    -0.57157     0.59111
 Feature   EFS_by	Qe
 Feature   mindist	2.781101
END_CFG

BEGIN_CFG
 Size
    2
 Supercell
         5.059055      0.000000      0.000000
         0.000000      5.059055      0.000000
         0.000000      0.000000      5.059055
 AtomData:  id type       cartes_x      cartes_y      cartes_z           fx          fy          fz
             1    0      -0.130393     -0.011098     -0.001969     0.111035    0.009903    0.001762
             2    0       2.659921      2.540625      2.531497    -0.111035   -0.009903   -0.001762
 Energy
        -28.118541932400
 PlusStress:  xx          yy          zz          yz          xz          xy
        -0.20900    -0.14765    -0.14730     0.00012     0.00071     0.00428
 Feature   EFS_by	Qe
 Feature   mindist	4.220485
END_CFG

BEGIN_CFG
 Size
    2
 Supercell
         5.212364      0.000000      0.000000
         0.000000      5.212364      0.000000
         0.000000      0.000000      5.212370
 AtomData:  id type       cartes_x      cartes_y      cartes_z           fx          fy          fz
             1    0       0.000000      0.000000      0.000000     0.000000    0.000000    0.000000
             2    0       2.606183      2.606183      2.606200     0.000000    0.000000    0.000000
 Energy
        -27.980363602600
 PlusStress:  xx          yy          zz          yz          xz          xy
        -0.18138    -0.18138    -0.18138     0.00000     0.00000     0.00000
 Feature   EFS_by	Qe
 Feature   mindist	4.514032
END_CFG

BEGIN_CFG
 Size
    2
 Supercell
         4.854649      0.000000      0.000000
         0.000000      4.854649      0.000000
         0.000000      0.000000      4.854649
 AtomData:  id type       cartes_x      cartes_y      cartes_z           fx          fy          fz
             1    0       4.707892      0.425002      4.948883     0.200486   -0.398193   -0.133530
             2    0       2.574081      2.002322      2.333090    -0.200486    0.398193    0.133530
 Energy
        -27.912504800600
 PlusStress:  xx          yy          zz          yz          xz          xy
         0.65435    -0.12301     0.73986     0.10999    -0.05536    -0.16482
 Feature   EFS_by	Qe
 Feature   mindist	3.471824
END_CFG

BEGIN_CFG
 Size
    6
 Supercell
         4.854649      0.000000      0.000000
         0.000000      4.854649      0.000000
         0.000000      0.000000     14.563947
 AtomData:  id type       cartes_x      cartes_y      cartes_z           fx          fy          fz
             1    0       2.420690      2.558544      2.835289     0.003978   -0.095801   -0.202058
             2    0      -0.042258      4.478964      4.830947    -0.181464    0.437575   -0.085697
             3    0       2.116584      2.583784      6.518102     0.346846   -0.461766    0.267096
             4    0       0.263344      4.583662      8.678241    -0.193042    0.192244    0.513765
             5    0       4.825249      0.366683      1.100425     0.032407   -0.098528   -0.441177
             6    0       2.553012      2.419632     12.446860    -0.008725    0.026275   -0.051928
 Energy
        -83.568228287600
 PlusStress:  xx          yy          zz          yz          xz          xy
         1.85842     1.33433     2.78778     0.13898    -0.11534    -0.22754
 Feature   EFS_by	Qe
 Feature   mindist	3.331485
END_CFG

BEGIN_CFG
 Size
    2
 Supercell
         5.059055      0.000000      0.000000
         0.000000      5.059055      0.000000
         0.000000      0.000000      5.059055
 AtomData:  id type       cartes_x      cartes_y      cartes_z           fx          fy          fz
             1    0       4.441850      0.315829      5.073675     0.425292   -0.398508   -0.025259
             2    0       3.146733      2.213698      2.514907    -0.425292    0.398508    0.025259
 Energy
        -27.728418685700
 PlusStress:  xx          yy          zz          yz          xz          xy
        -0.55329     0.34643     0.97628     0.02294    -0.02390    -0.37080
 Feature   EFS_by	Qe
 Feature   mindist	3.395683
END_CFG

BEGIN_CFG
 Size
    2
 Supercell
         4.956852      0.000000      0.000000
         0.000000      4.956852      0.000000
         0.000000      0.000000      4.956852
 AtomData:  id type       cartes_x      cartes_y      cartes_z           fx          fy          fz
             1    0       0.104195     -0.067955     -0.020490    -0.101448    0.067316    0.020464
             2    0       2.374231      2.546381      2.498916     0.101448   -0.067316   -0.020464
 Energy
        -28.123820397100
 PlusStress:  xx          yy          zz          yz          xz          xy
        -0.00682     0.02035     0.03936     0.00436    -0.00671    -0.02192
 Feature   EFS_by	Qe
 Feature   mindist	4.072050
END_CFG

BEGIN_CFG
 Size
    4
 Supercell
         4.854649      0.000000      0.000000
         0.000000      4.854649      0.000000
         0.000000      0.000000      9.709298
 AtomData:  id type       cartes_x      cartes_y      cartes_z           fx          fy          fz
             1    0       2.258955      2.580990      2.034108    -0.045333   -0.273986    0.247560
             2    0       4.583752      3.894385      5.028415     0.541673    0.367345   -0.789444
             3    0       4.674087     -0.103863      0.409877     0.137391    0.289160   -0.207777
             4    0       3.047152      3.337786      7.091546    -0.633731   -0.382520    0.749660
 Energy
        -55.142655524600
 PlusStress:  xx          yy          zz          yz          xz          xy
         1.67658    -0.42272     1.93038    -0.09622    -0.68828     0.36935
 Feature   EFS_by	Qe
 Feature   mindist	2.632005
END_CFG

BEGIN_CFG
 Size
    1
 Supercell
         2.171817      2.171817      2.171817
        -2.171821      2.171821      2.171821
        -2.171821     -2.171821      2.171821
 AtomData:  id type       cartes_x      cartes_y      cartes_z           fx          fy          fz
             1    0       0.000000      0.000000      0.000000     0.000000    0.000000    0.000000
 Energy
        -13.722442783600
 PlusStress:  xx          yy          zz          yz          xz          xy
         1.25686     1.25705     1.25693     0.00008     0.00004    -0.00000
 Feature   EFS_by	Qe
 Feature   mindist	3.761698
END_CFG

BEGIN_CFG
 Size
    2
 Supercell
         4.854649      0.000000      0.000000
         0.000000      4.854649      0.000000
         0.000000      0.000000      4.854649
 AtomData:  id type       cartes_x      cartes_y      cartes_z           fx          fy          fz
             1    0       4.694081      0.924739      4.689349     0.416364   -0.344923    0.424570
             2    0       2.587892      1.502586      2.592624    -0.416364    0.344923   -0.424570
 Energy
        -27.435006065400
 PlusStress:  xx          yy          zz          yz          xz          xy
         1.96641    -1.18264     1.94876    -0.20106     0.34088    -0.19739
 Feature   EFS_by	Qe
 Feature   mindist	3.027573
END_CFG

BEGIN_CFG
 Size
    2
 Supercell
         5.263461      0.000000      0.000000
         0.000000      5.263461      0.000000
         0.000000      0.000000      5.263461
 AtomData:  id type       cartes_x      cartes_y      cartes_z           fx          fy          fz
             1    0       0.078471     -0.043974     -0.015910    -0.051837    0.029426    0.010739
             2    0       2.553260      2.675705      2.647641     0.051837   -0.029426   -0.010739
 Energy
        -28.082853111200
 PlusStress:  xx          yy          zz          yz          xz          xy
        -0.49417    -0.48413    -0.48038     0.00187    -0.00335    -0.00924
 Feature   EFS_by	Qe
 Feature   mindist	4.399425
END_CFG

BEGIN_CFG
 Size
    2
 Supercell
         4.854649      0.000000      0.000000
         0.000000      4.854649      0.000000
         0.000000      0.000000      4.854649
 AtomData:  id type       cartes_x      cartes_y      cartes_z           fx          fy          fz
             1    0       0.000000      0.000000      0.000000     0.000000    0.000000    0.000000
             2    0       2.427324      2.427324      2.427324     0.000000    0.000000    0.000000
 Energy
        -28.133109139800
 PlusStress:  xx          yy          zz          yz          xz          xy
         0.21083     0.21083     0.21083     0.00000     0.00000     0.00000
 Feature   EFS_by	Qe
 Feature   mindist	4.204248
END_CFG

BEGIN_CFG
 Size
    1
 Supercell
         2.299571      2.299571      2.299571
        -2.299575      2.299575      2.299575
        -2.299575     -2.299575      2.299575
 AtomData:  id type       cartes_x      cartes_y      cartes_z           fx          fy          fz
             1    0       0.000000      0.000000      0.000000     0.000000    0.000000    0.000000
 Energy
        -13.887733586000
 PlusStress:  xx          yy          zz          yz          xz          xy
         0.69781     0.69768     0.69786     0.00004    -0.00004     0.00004
 Feature   EFS_by	Qe
 Feature   mindist	3.982974
END_CFG

BEGIN_CFG
 Size
    2
 Supercell
         5.263461      0.000000      0.000000
         0.000000      5.263461      0.000000
         0.000000      0.000000      5.263461
 AtomData:  id type       cartes_x      cartes_y      cartes_z           fx          fy          fz
             1    0       0.105036     -0.058159     -0.018835    -0.069521    0.039246    0.012905
             2    0       2.526695      2.689889      2.650566     0.069521   -0.039246   -0.012905
 Energy
        -28.078584325000
 PlusStress:  xx          yy          zz          yz          xz          xy
        -0.49363    -0.47529    -0.46806     0.00295    -0.00536    -0.01620
 Feature   EFS_by	Qe
 Feature   mindist	4.349814
END_CFG

BEGIN_CFG
 Size
    2
 Supercell
         5.059055      0.000000      0.000000
         0.000000      5.059055      0.000000
         0.000000      0.000000      5.059055
 AtomData:  id type       cartes_x      cartes_y      cartes_z           fx          fy          fz
             1    0       0.077202     -0.055025     -0.027378    -0.066865    0.048102    0.024109
             2    0       2.452326      2.584552      2.556905     0.066865   -0.048102   -0.024109
 Energy
        -28.124800415100
 PlusStress:  xx          yy          zz          yz          xz          xy
        -0.18665    -0.17583    -0.16763     0.00452    -0.00630    -0.01272
 Feature   EFS_by	Qe
 Feature   mindist	4.197569
END_CFG

BEGIN_CFG
 Size
    4
 Supercell
         4.956852      0.000000      0.000000
         0.000000      4.956852      0.000000
         0.000000      0.000000      9.913704
 AtomData:  id type       cartes_x      cartes_y      cartes_z           fx          fy          fz