BEGIN_CFG
 Size
    4
 Supercell
    4.956852144832083     0.0      0.0 
    0.0     4.956852144832083      0.0 
    0.0     0.0      9.913704289664166 
 AtomData:  id type    cartes_x    cartes_y    cartes_z    fx    fy    fz
    1    0   2.6559190512773307    3.383688048663293    1.7502099669666151    -0.09229849666204552    0.011428811521194775    0.24269698715727697
    2    0   4.041276942012294    0.8399901472041027    4.3900529553678265    0.1593333317625379    0.07018649359246794    0.23074109944840476
    3    0   0.3050010606940919    1.0507678925327248    0.7099709240747282    0.017973040889464793    0.08342304788222857    -0.22062355063801725
    4    0   2.9115072356804492    4.639257209893616    8.020321101031435    -0.08500787598995717    -0.16503835299589129    -0.25281453596766446
 Energy
    -55.5741610309
 PlusStress:  xx          yy          zz          yz          xz          xy
    0.8393512161310821   0.812066151284828    1.7780021764567284    0.010511459407983176    0.0317580262964598    0.16684146209266912
 Feature EFS_by Qe
END_CFG

BEGIN_CFG
 Size
    4
 Supercell
    5.365663765435493     0.0      0.0 
    0.0     5.365663765435493      0.0 
    0.0     0.0      10.731327530870987 
 AtomData:  id type    cartes_x    cartes_y    cartes_z    fx    fy    fz
    1    0   2.7194589767133626    2.6232520888327273    2.9794876278483913    0.002613783670209131    0.009344418031682141    -0.05491233989424702
    2    0   0.039327096002382905    -0.010304220695142322    5.652611951681712    -0.052244820163928334    0.025280630843692996    -0.10671030229515907
    3    0   0.05878406594860509    5.338624576022334    10.560401628791157    -0.022427734561513132    0.010787578344576483    0.019984672154044397
    4    0   2.548094699903896    2.7797556232774436    7.63581869198896    0.07205877105523234    -0.045412884330287076    0.14163822714569715
 Energy
    -56.0518905186
 PlusStress:  xx          yy          zz          yz          xz          xy
    -1.1205073881672833   -1.1066074230988792    -1.0677442554586467    -0.02694891186731441    0.03744480385774213    -0.01758771090287888
 Feature EFS_by Qe
END_CFG

BEGIN_CFG
 Size
    4
 Supercell
    4.956852144832083     0.0      0.0 
    0.0     4.956852144832083      0.0 
    0.0     0.0      9.913704289664166 
 AtomData:  id type    cartes_x    cartes_y    cartes_z    fx    fy    fz
    1    0   3.262768119016187    3.514975234571316    2.8200498438117965    -0.17457688933083998    0.04032107124698769    -0.1453943520363213
    2    0   3.8626919686234977    0.8514870700688263    9.485863510487274    0.6002202214586035    0.5894102745148427    0.6175119199591195
    3    0   0.46915911591535386    1.2316320265377145    4.777631207313105    0.04139862066286871    0.016664092171676612    0.18853335255986733
    4    0   2.3190850861091272    4.315609958486309    7.7007151711778095    -0.4670416956802968    -0.6463954379335071    -0.660651177593001
 Energy
    -55.4148435359
 PlusStress:  xx          yy          zz          yz          xz          xy
    0.30527961897653266   0.7959634900640877    0.9035382129415325    0.44282318357035505    1.294698691762013    0.45199275454327653
 Feature EFS_by Qe
END_CFG

BEGIN_CFG
 Size
    2
 Supercell
    4.8546489750926245     0.0      0.0 
    0.0     4.8546489750926245      0.0 
    0.0     0.0      4.8546489750926245 
 AtomData:  id type    cartes_x    cartes_y    cartes_z    fx    fy    fz
    1    0   0.25003820999724813    4.647957925793978    4.638150078469599    -0.29337986203333194    0.25492206938736783    0.26420709493156047
    2    0   2.1772867630139614    2.634015051380061    2.6438228987044408    0.29337986203333194    -0.25492206938736783    -0.26420709493156047
 Energy
    -27.9589372212
 PlusStress:  xx          yy          zz          yz          xz          xy
    0.30831799550371747   0.4160979830290375    0.39277716701478693    0.14580762444945822    -0.16797290453507474    -0.16209017617111962
 Feature EFS_by Qe
END_CFG

BEGIN_CFG
 Size
    2
 Supercell
    5.263461124873246     0.0      0.0 
    0.0     5.263461124873246      0.0 
    0.0     0.0      5.263461124873246 
 AtomData:  id type    cartes_x    cartes_y    cartes_z    fx    fy    fz
    1    0   4.877941020166356    5.160617305262123    -0.028052142411124456    0.2315507398947444    0.08783788945228177    0.02467822132772802
    2    0   3.017251193489627    2.734574908393859    2.659782178501635    -0.2315507398947444    -0.08783788945228177    -0.02467822132772802
 Energy
    -27.9858777179
 PlusStress:  xx          yy          zz          yz          xz          xy
    -0.555622245473624   -0.22988033625981025    -0.19667688640982017    0.009639711246771309    0.026241436171766337    0.09358553002073812
 Feature EFS_by Qe
END_CFG

BEGIN_CFG
 Size
    2
 Supercell
    5.365663765435493     0.0      0.0 
    0.0     5.365663765435493      0.0 
    0.0     0.0      5.365663765435493 
 AtomData:  id type    cartes_x    cartes_y    cartes_z    fx    fy    fz
    1    0   0.06762775296679586    -0.0533271858991572    -0.01669418967339945    -0.0390170076255731    0.030845012723553913    0.009640094917452406
    2    0   2.6152041297509507    2.736159068616904    2.6995260723911465    0.0390170076255731    -0.030845012723553913    -0.009640094917452406
 Energy
    -28.051360966
 PlusStress:  xx          yy          zz          yz          xz          xy
    -0.6211015003524726   -0.617981100030994    -0.6128749904140293    0.0022693820519843716    -0.002836727564980464    -0.008935691829688463
 Feature EFS_by Qe
END_CFG

BEGIN_CFG
 Size
    6
 Supercell
    5.263461124873246     0.0      0.0 
    0.0     5.263461124873246      0.0 
    0.0     0.0      15.79038337461974 
 AtomData:  id type    cartes_x    cartes_y    cartes_z    fx    fy    fz
    1    0   1.3218772065151416    1.9076799022151472    1.860748251095215    0.04180871164791529    0.047312415488609434    0.2665987352719387
    2    0   4.077879138802247    1.5517651872973306    14.856607474147125    0.008738923191691733    -0.05491465388726609    -0.17322628873870852
    3    0   1.1908691327709342    4.111341066557516    6.700752348857933    -0.20371906030269263    -0.1306143644028399    -0.15785083356831933
    4    0   3.1361812029905876    1.1462160339719596    8.760275209333987    0.28282471143200444    0.3225261467705518    -0.24253192232191653
    5    0   0.5924367621017955    0.4600791369251705    11.19019203993627    -0.4870523359782219    0.5237702629841796    -0.021717338704658144
    6    0   2.8394088426562965    3.981570958869879    11.897768066836893    0.3573990500093031    -0.7080798069532348    0.32872764806166377
 Energy
    -82.8730196883
 PlusStress:  xx          yy          zz          yz          xz          xy
    1.9516398728359081   -0.218500121593483    0.8237936569636647    -0.46873095937425496    0.7450693484483658    -0.5578982884068896
 Feature EFS_by Qe
END_CFG

BEGIN_CFG
 Size
    2
 Supercell
    5.365663765435493     0.0      0.0 
    0.0     5.365663765435493      0.0 
    0.0     0.0      5.365663765435493 
 AtomData:  id type    cartes_x    cartes_y    cartes_z    fx    fy    fz
    1    0   4.973084976037406    5.3345777924104425    -0.15746184199322308    0.21244847041197262    0.02483351597034127    0.11815762576050642
    2    0   3.0754117452485876    2.7139189288755503    2.8402947978437227    -0.21244847041197262    -0.02483351597034127    -0.11815762576050642
 Energy
    -27.9526278532
 PlusStress:  xx          yy          zz          yz          xz          xy
    -0.629753519425663   -0.3150185960910805    -0.38196536662461955    0.015318328850894508    0.13545374122781717    0.02836727564980464
 Feature EFS_by Qe
END_CFG

BEGIN_CFG
 Size
    4
 Supercell
    5.161257955133788     0.0      0.0 
    0.0     5.161257955133788      0.0 
    0.0     0.0      10.322515910267576 
 AtomData:  id type    cartes_x    cartes_y    cartes_z    fx    fy    fz
    1    0   2.624293219867326    2.5396909117183637    1.948920939154658    -0.03865371072157885    0.011518543028267665    0.33417658740090656
    2    0   5.060142718283171    -0.01029877412367396    0.06692396740103777    0.05672522486952191    0.006179389802263059    -0.03873907135294905
    3    0   0.1542570971340611    5.167137144070481    5.1533927141359595    -0.03239950181169914    -0.00033115811206269535    -0.009167783231226342
    4    0   2.483822874983018    2.625987144728201    8.314535728583913    0.014327987663756075    -0.01736703182880348    -0.2862697328167312
 Energy
    -56.0581749882
 PlusStress:  xx          yy          zz          yz          xz          xy
    -0.40193610950654707   -0.3711344729740102    -0.1805177878751138    0.013633511252106498    -0.02297499118410539    -0.0042920313201076
 Feature EFS_by Qe
END_CFG

BEGIN_CFG
 Size
    2
 Supercell
    5.05905478539433     0.0      0.0 
    0.0     5.05905478539433      0.0 
    0.0     0.0      5.05905478539433 
 AtomData:  id type    cartes_x    cartes_y    cartes_z    fx    fy    fz
    1    0   4.47570883753843    4.9918538429635015    0.05732010252947484    0.36033036494379594    0.08884704751893246    -0.07602161265556023
    2    0   3.112872834647586    2.596727829222515    2.4722077960731683    -0.36033036494379594    -0.08884704751893246    0.07602161265556023
 Energy
    -27.8733121052
 PlusStress:  xx          yy          zz          yz          xz          xy
    -0.6085700098239331   0.5109657945347263    0.5185744057143965    -0.016643836955528547    -0.0716873834584551    0.08369472297637214
 Feature EFS_by Qe
END_CFG

BEGIN_CFG
 Size
    2
 Supercell
    4.956852144832083     0.0      0.0 
    0.0     4.956852144832083      0.0 
    0.0     0.0      4.956852144832083 
 AtomData:  id type    cartes_x    cartes_y    cartes_z    fx    fy    fz
    1    0   0.0502808211015332    -0.022844148794673138    -0.014006081420437534    -0.04900805815091803    0.022375541163416297    0.013753860284690859
    2    0   2.4281442599440792    2.5012702212107145    2.4924321538364786    0.04900805815091803    -0.022375541163416297    -0.013753860284690859
 Energy
    -28.1361740942
 PlusStress:  xx          yy          zz          yz          xz          xy
    -0.003913841268929906   0.005143905667736447    0.00637397006654299    0.0010064163262962615    -0.002236480725102803    -0.0035783691601644855
 Feature EFS_by Qe
END_CFG

BEGIN_CFG
 Size
    2
 Supercell
    5.161257955133788     0.0      0.0 
    0.0     5.161257955133788      0.0 
    0.0     0.0      5.161257955133788 
 AtomData:  id type    cartes_x    cartes_y    cartes_z    fx    fy    fz
    1    0   5.0668580310085956    0.403195923077665    0.24047487902298    0.10215096471658161    -0.2989864100082071    -0.22938407109788697
    2    0   2.6750289016920865    2.177433054489229    2.340154098543914    -0.10215096471658161    0.2989864100082071    0.22938407109788697
 Energy
    -27.9334304925
 PlusStress:  xx          yy          zz          yz          xz          xy
    0.1268673963737688   -0.3784561734612526    -0.07334324108772106    0.23176969128581046    -0.07624667403955855    -0.10199886196020416
 Feature EFS_by Qe
END_CFG

BEGIN_CFG
 Size
    2
 Supercell
    4.8546489750926245     0.0      0.0 
    0.0     4.8546489750926245      0.0 
    0.0     0.0      4.8546489750926245 
 AtomData:  id type    cartes_x    cartes_y    cartes_z    fx    fy    fz
    1    0   0.11010004050081816    -0.09031006395385308    -0.046679877220003135    -0.12068064948230087    0.1001123368667795    0.052476476576170945
    2    0   2.3172239615805963    2.5176340660352676    2.474003879301418    0.12068064948230087    -0.1001123368667795    -0.052476476576170945
 Energy
    -28.1084686855
 PlusStress:  xx          yy          zz          yz          xz          xy
    0.21251356214787753   0.23320816014250526    0.264617727657194    0.013656333702038595    -0.016387600442446314    -0.03140956751468877
 Feature EFS_by Qe
END_CFG

BEGIN_CFG
 Size
    8
 Supercell
    5.365663765435493     0.0      0.0 
    0.0     10.731327530870987      0.0 
    0.0     0.0      10.731327530870987 
 AtomData:  id type    cartes_x    cartes_y    cartes_z    fx    fy    fz
    1    0   4.731105881242925    0.08969619146765552    10.372279310909482    0.015085691822334307    -0.23236320855477396    0.23277381376049144
    2    0   2.6082808137944093    2.9582980850723097    1.7904297091090586    0.17127867794765655    -0.2269098983398285    0.09053240576782295
    3    0   0.27784802050004    4.74051081669098    4.351771696283438    0.024646853866802827    -0.1034707120684588    0.3337418138236566
    4    0   1.193473860018286    6.077954557164302    0.4828598382161759    -0.21102716447759173    0.0668126917706615    -0.13972224092590585
    5    0   3.8450110453905064    7.728895788195217    3.083686671907642    -0.14749700035965105    0.25615465633552664    0.039522229434737065
    6    0   4.494972677120887    0.4708219715584213    6.260775599245726    -0.016571018230242842    -0.105006432102116    -0.33469954982321676
    7    0   1.6091609535549747    2.315342937086835    8.445042882472244    0.15610505439059755    0.33847161555463895    -0.04630274320128785
    8    0   2.7028018101199445    7.812464391642745    8.138465488472931    0.007978647929758977    0.006311544514685595    -0.1758457288362976
 Energy
    -111.25068531
 PlusStress:  xx          yy          zz          yz          xz          xy
    -1.8160729871004933   -0.2467952981533004    0.40281531422722594    -0.19346481993166767    -0.2711911552121324    -0.10949768400824593
 Feature EFS_by Qe
END_CFG

BEGIN_CFG
 Size
    4
 Supercell
    4.956852144832083     0.0      0.0 
    0.0     4.956852144832083      0.0 
    0.0     0.0      9.913704289664166 
 AtomData:  id type    cartes_x    cartes_y    cartes_z    fx    fy    fz
    1    0   2.542547911761589    3.353328320646625    2.09896516154314    -0.07468978111791678    -0.03522360173630834    0.023499884660349656
    2    0   4.012348257209839    0.9056372099546154    4.2350700334666485    0.26244511780270513    0.028527420159785946    0.36580578664759034
    3    0   0.5071880855705057    0.8970489679284793    0.36100803739333504    -0.24553959902603872    0.2931903717161035    0.11675123222558177
    4    0   2.8516190437518025    4.75769028681966    8.175512210722696    0.05778426234125036    -0.2864944472499166    -0.5060566464231863
 Energy
    -55.4734231193
 PlusStress:  xx          yy          zz          yz          xz          xy
    1.0061926782237511   0.6467902256997307    1.7605576268009269    0.2057562267094579    0.29655734414863166    -0.022812103396048593
 Feature EFS_by Qe
END_CFG

BEGIN_CFG
 Size
    2
 Supercell
    5.263461124873246     0.0      0.0 
    0.0     5.263461124873246      0.0 
    0.0     0.0      5.263461124873246 
 AtomData:  id type    cartes_x    cartes_y    cartes_z    fx    fy    fz
    1    0   -0.038321155065752156    0.46387619778065403    5.091559116265449    0.038025333061733176    -0.2731959293693119    0.15832134548219726
    2    0   2.670052243848488    2.1678548910020816    2.8036320446983085    -0.038025333061733176    0.2731959293693119    -0.15832134548219726
 Energy
    -27.9288226524
 PlusStress:  xx          yy          zz          yz          xz          xy
    -0.0290530186187413   -0.5707512367359179    -0.13535761209008046    -0.17565696049672164    0.023295968846363996    -0.04190596694776972
 Feature EFS_by Qe
END_CFG

BEGIN_CFG
 Size
    6
 Supercell
    5.365663765435493     0.0      0.0 
    0.0     5.365663765435493      0.0 
    0.0     0.0      16.09699129630648 
 AtomData:  id type    cartes_x    cartes_y    cartes_z    fx    fy    fz
    1    0   1.4940020046884452    1.4599938911767385    3.935352726209144    -0.04290220190459436    -0.06148048052371411    -0.17400970393083198
    2    0   3.3955106119367966    1.8309699816888065    16.009662435692135    0.042770047192171826    0.009106076750717765    -0.10666299399343585
    3    0   3.559601731512215    3.3433268489860533    6.805131846443934    -0.3323253929856493    0.14840048607843082    -0.09348377530848109
    4    0   0.17742586716527892    0.7387939513318008    7.516222875754791    0.3057849214982395    -0.15392295897361297    0.2655903485362944
    5    0   1.3507280508237867    1.8958810990911623    11.049885378925762    -0.48554926895716716    -0.3935762739798044    0.08590904771571785
    6    0   3.4368900743294586    4.1451936413141715    11.023216420312417    0.5122218951569995    0.4514728935376474    0.022656819870401225
 Energy
    -82.9648485922
 PlusStress:  xx          yy          zz          yz          xz          xy
    0.23062595103291175   1.2071694152774366    -1.0007974849251076    0.1906280923666872    0.22466882314645276    0.7922980088990437
 Feature EFS_by Qe
END_CFG

BEGIN_CFG
 Size
    2
 Supercell
    5.365663765435493     0.0      0.0 
    0.0     5.365663765435493      0.0 
    0.0     0.0      5.365663765435493 
 AtomData:  id type    cartes_x    cartes_y    cartes_z    fx    fy    fz
    1    0   5.274428701599911    0.6365490820159212    5.110178758377035    0.10533681888317234    -0.3035534608968481    0.2537961832284218
    2    0   2.774066946553329    2.0462838738345783    2.938316889776204    -0.10533681888317234    0.3035534608968481    -0.2537961832284218
 Energy
    -27.7819168148
 PlusStress:  xx          yy          zz          yz          xz          xy
    0.1791393457285163   -0.7100329095146102    -0.0568763876778583    -0.28381459287629546    0.09276099137486117    -0.11673133929894612
 Feature EFS_by Qe
END_CFG

BEGIN_CFG
 Size
    2
 Supercell
    4.956852144832083     0.0      0.0 
    0.0     4.956852144832083      0.0 
    0.0     0.0      4.956852144832083 
 AtomData:  id type    cartes_x    cartes_y    cartes_z    fx    fy    fz
    1    0   4.92284318226639    0.47301802531010567    4.958728313368902    0.04424303230397864    -0.364370596755095    -0.0024464048418296165
    2    0   2.5124340436113055    2.0054080471059357    2.4765489125087936    -0.04424303230397864    0.364370596755095    0.0024464048418296165
 Energy
    -27.9432616941
 PlusStress:  xx          yy          zz          yz          xz          xy
    0.5251256742541383   -0.3783007146511392    0.5322824125744672    0.002236480725102803    -0.00022364807251028034    -0.03969753287057476
 Feature EFS_by Qe
END_CFG

BEGIN_CFG
 Size
    2
 Supercell
    5.365663765435493     0.0      0.0 
    0.0     5.365663765435493      0.0 
    0.0     0.0      5.365663765435493 
 AtomData:  id type    cartes_x    cartes_y    cartes_z    fx    fy    fz
    1    0   0.13128920727818183    0.13588704455878348    0.27728408923829273    -0.09056171634606454    -0.0933493066030395    -0.16284648738615953
    2    0   2.5515426754395647    2.546944838158963    2.405547793479454    0.09056171634606454    0.0933493066030395    0.16284648738615953
 Energy
    -27.9886049791
 PlusStress:  xx          yy          zz          yz          xz          xy
    -0.4647978115220491   -0.46777637546527856    -0.5847913875207228    0.09063344570112583    0.08779671813614537    0.04964273238715812
 Feature EFS_by Qe
END_CFG

BEGIN_CFG
 Size
    2
 Supercell
    5.263461124873246     0.0      0.0 
    0.0     5.263461124873246      0.0 
    0.0     0.0      5.263461124873246 
 AtomData:  id type    cartes_x    cartes_y    cartes_z    fx    fy    fz
    1    0   0.15923022594966546    -0.07585226461666084    -0.01977692883059874    -0.10480151516476044    0.05261685881932796    0.014034881881340333
    2    0   2.472499810140845    2.707582300707171    2.651506964921109    0.10480151516476044    -0.05261685881932796    -0.014034881881340333
 Energy
    -28.0674876578
 PlusStress:  xx          yy          zz          yz          xz          xy
    -0.4959095896950128   -0.44931765200228485    -0.4356613944026922    0.0041504312312487576    -0.008300862462497515    -0.031596831308861505
 Feature EFS_by Qe
END_CFG

BEGIN_CFG
 Size
    4
 Supercell
    5.365663765435493     0.0      0.0 
    0.0     5.365663765435493      0.0 
    0.0     0.0      10.731327530870987 
 AtomData:  id type    cartes_x    cartes_y    cartes_z    fx    fy    fz
    1    0   2.782729810702625    2.729896802436264    2.7341088484921308    -0.04592890477354005    -0.009832413448370804    -0.10357766996800699
    2    0   -0.048581792865006045    5.24139767545989    10.16800258912921    0.05423305438798177    0.08069253611972405    0.23834668028142228
    3    0   5.267448509607456    0.05197020953287856    5.2102408756731355    0.0434416193883735    -0.0023972967677582074    0.12244031261813709
    4    0   2.729732076558665    2.708062843441954    8.715968660148494    -0.05174576900281522    -0.06846308301393048    -0.25720906582121694
 Energy
    -55.9224549351
 PlusStress:  xx          yy          zz          yz          xz          xy
    -0.7435062947813798   -0.7463430223463602    -1.240500964165957    0.059854951621087796    0.10013648304381038    0.016169347120388648
 Feature EFS_by Qe
END_CFG

BEGIN_CFG
 Size
    4
 Supercell
    5.263461124873246     0.0      0.0 
    0.0     5.263461124873246      0.0 
    0.0     0.0      10.526922249746493 
 AtomData:  id type    cartes_x    cartes_y    cartes_z    fx    fy    fz
    1    0   3.1827559914462538    2.397114940872073    2.9235852710419445    -0.40231725405417973    0.059634428315165855    -0.2658711130226084
    2    0   5.211501289340723    5.18452236665296    0.345363054400783    0.1302459252921366    0.014571728261764953    -0.10461613861289926
    3    0   4.57521515895372    5.079307357805081    4.848526167670001    0.41502004728754116    0.08432884759402737    0.24916048388021492
    4    0   2.8209109348790427    3.1294392356357372    7.672909934199235    -0.1429489756358335    -0.1585350041709582    0.1213270248656282
 Energy
    -55.7503211494
 PlusStress:  xx          yy          zz          yz          xz          xy
    -1.1251685183036955   0.026509205928621098    -0.0018743882979833102    -0.11781869301609377    -0.01847611322297834    0.08300862462497516
 Feature EFS_by Qe
END_CFG

BEGIN_CFG
 Size
    2
 Supercell
    4.8546489750926245     0.0      0.0 
    0.0     4.8546489750926245      0.0 
    0.0     0.0      4.8546489750926245 
 AtomData:  id type    cartes_x    cartes_y    cartes_z    fx    fy    fz
    1    0   0.2561749717666627    4.799532203418808    4.866937062578379    -0.2619342395661612    0.06588220946665926    -0.014801584901659401
    2    0   2.171149030314752    2.4824407737552314    2.41503591459566    0.2619342395661612    -0.06588220946665926    0.014801584901659401
 Energy
    -28.0601890199
 PlusStress:  xx          yy          zz          yz          xz          xy
    0.06817661978940806   0.38458336679356375    0.4012861133983649    -0.00231107185726807    0.009454384870642105    -0.04212453703474981
 Feature EFS_by Qe
END_CFG

BEGIN_CFG
 Size
    4
 Supercell
    4.8546489750926245     0.0      0.0 
    0.0     4.8546489750926245      0.0 
    0.0     0.0      9.709297950185249 
 AtomData:  id type    cartes_x    cartes_y    cartes_z    fx    fy    fz
    1    0   2.1662002011495427    0.3627481097870761    2.564842129063761    0.2523843903764526    0.026561040314245967    -0.3382031923644267
    2    0   0.06489209285006312    4.712653890825448    5.032734005305538    -0.207398566313352    0.033655742910719585    0.24462968554887266
    3    0   0.24856191124392243    1.520845012321117    9.245644019591284    -0.29384651729217803    -0.22191835828735554    0.3161624088577694
    4    0   2.3749947698490965    3.113049966321813    7.430022779642952    0.24886095033941286    0.16170131795205453    -0.2225889020422154
 Energy
    -55.5200324139
 PlusStress:  xx          yy          zz          yz          xz          xy
    2.1663147200264605   -0.8485835665005212    1.731413015976924    -1.750321785718208    -0.3477112657980596    0.14412684491689964
 Feature EFS_by Qe
END_CFG

BEGIN_CFG
 Size
    4
 Supercell
    5.161257955133788     0.0      0.0 
    0.0     5.161257955133788      0.0 
    0.0     0.0      10.322515910267576 
 AtomData:  id type    cartes_x    cartes_y    cartes_z    fx    fy    fz
    1    0   3.96556119556124    4.427126817105104    2.4047007905308173    -0.1067339564460207    0.33553978639947524    0.14264687099167694
    2    0   0.8981048193890798    3.261727157854987    5.2532480879197285    0.02474995511131924    -0.2627618777359825    -0.021719395587341764
    3    0   3.9725577968452193    2.4501709569897505    9.973327906558227    0.038349806305074105    -0.06168642590241149    -0.18533310021449126
    4    0   1.4862910662204456    0.1834909783177344    8.175012990660168    0.0436344521399628    -0.011091482761081222    0.0644056248101561
 Energy
    -55.5326254352
 PlusStress:  xx          yy          zz          yz          xz          xy
    -1.031854823839986   0.20803728280992137    1.0252905406445274    0.6922794046902965    0.6147703684977651    -0.010856314515566285
 Feature EFS_by Qe
END_CFG

BEGIN_CFG
 Size
    4
 Supercell
    4.8546489750926245     0.0      0.0 
    0.0     4.8546489750926245      0.0 
    0.0     0.0      9.709297950185249 
 AtomData:  id type    cartes_x    cartes_y    cartes_z    fx    fy    fz
    1    0   3.269961930494757    3.197967971659031    2.7789510819963485    -0.08408356433400578    0.2572340055237558    0.028444373521434824
    2    0   0.5962572109539288    1.421705798276263    5.314162861040632    -0.4378599297167845    -0.3368309945041172    -0.3766239611220856
    3    0   3.7040321156994063    1.3873921683905133    9.470129784708131    0.17380967208985001    -0.15845684262898066    -0.12843509719954535
    4    0   2.1390471785020546    3.702232011859442    6.709999205858422    0.34813407907127575    0.238053831609342    0.47661468480019614
 Energy
    -55.5328224457
 PlusStress:  xx          yy          zz          yz          xz          xy
    -0.08130770988752209   1.9799582893540266    1.645062967491726    0.2857325205349614    0.798580375406903    0.05525562713286385
 Feature EFS_by Qe
END_CFG

BEGIN_CFG
 Size
    2
 Supercell
    4.8546489750926245     0.0      0.0 
    0.0     4.8546489750926245      0.0 
    0.0     0.0      4.8546489750926245 
 AtomData:  id type    cartes_x    cartes_y    cartes_z    fx    fy    fz
    1    0   0.19079984134357786    4.685412028101715    4.682824985662889    -0.21867208319193351    0.19776644181629857    0.2003277749780754
    2    0   2.2365241607378366    2.5965609490723236    2.599147991511151    0.21867208319193351    -0.19776644181629857    -0.2003277749780754
 Energy
    -28.0267652744
 PlusStress:  xx          yy          zz          yz          xz          xy
    0.2857325205349614   0.3272267652450017    0.32239452408889574    0.09191763068679822    -0.10189725916136491    -0.10053162579116104
 Feature EFS_by Qe
END_CFG

BEGIN_CFG
 Size
    2
 Supercell
    5.365663765435493     0.0      0.0 
    0.0     5.365663765435493      0.0 
    0.0     0.0      5.365663765435493 
 AtomData:  id type    cartes_x    cartes_y    cartes_z    fx    fy    fz
    1    0   5.3264187640887215    0.42538714049184323    0.36857924850804796    0.03969629313183834    -0.2757467210073352    -0.26503267621869814
    2    0   2.7220768840645184    2.2574447422259034    2.3142526342096987    -0.03969629313183834    0.2757467210073352    0.26503267621869814
 Energy
    -27.854574889
 PlusStress:  xx          yy          zz          yz          xz          xy
    -0.013332619555408182   -0.5001150697060558    -0.4128856970829066    0.31076350474360986    -0.04326009536595208    -0.045387641039687426
 Feature EFS_by Qe
END_CFG

BEGIN_CFG
 Size
    16
 Supercell
    10.322515910267576     0.0      0.0 
    0.0     10.322515910267576      0.0 
    0.0     0.0      10.322515910267576 
 AtomData:  id type    cartes_x    cartes_y    cartes_z    fx    fy    fz
    1    0   3.18738439826924    1.4226264332180747    3.8320668069290913    -0.07728788105766331    -0.06966044584613232    -0.09463100162526972
    2    0   7.097082718353089    2.423653445867864    1.3626990671010164    -0.08059869084728391    0.049265168486370435    0.09942096717474799
    3    0   6.059322000585023    5.197274245396303    9.01130039126902    0.014050308501467478    0.18079021769738274    -0.03651712383396938
    4    0   10.1550774764419    4.620404572757363    6.322425382860696    -0.003654309197785007    0.15141073388590753    -0.3897486724159245
    5    0   0.5542953625947752    7.085684596284972    2.4097066946215016    -0.5098955608418261    -0.06289690136172141    0.32414439922188926
    6    0   4.007266740467699    6.077674401621888    4.707393446584779    0.0946176318878262    -0.39390768920220254    -0.1352966007217636
    7    0   6.461943475652281    8.64857956920131    3.0293910665014576    0.2375067008154993    0.1045045527273129    0.036177223970501306
    8    0   1.0718797296062748    4.661863925659362    9.549923077957235    0.11605729143019575    -0.006433929034360938    0.2407208371189898
    9    0   4.16097622813272    1.77356926463217    8.119225469548923    -0.23037343166870783    -0.12446094274445756    0.1816456237834329
    10    0   0.7424572793619058    0.6559669830529556    0.724916228075588    0.016210806650274023    -0.05016556888112475    -0.14581652720713417
    11    0   9.60633872416162    0.9906043683351922    4.47902945935352    0.19004001912561844    -0.1938419096559531    -0.05059700002401388
    12    0   8.46856108523579    1.756178922078142    8.279604334743567    0.0669147645738361    0.0015038383520611064    0.08913938197034185
    13    0   6.340068627054525    2.5553749423924246    5.242797572812174    0.06867211371665327    0.20438163363715348    -0.02005203506193293