BEGIN_CFG
 Size
    2
 Supercell
         4.964479      0.000000      0.000000
         0.000000      4.964479      0.000000
         0.000000      0.000000      4.964479
 AtomData:  id type       cartes_x      cartes_y      cartes_z           fx          fy          fz
             1    0       0.173329     -0.118800     -0.060643    -0.166999    0.119387    0.062687
             2    0       2.308911      2.601040      2.542883     0.166999   -0.119387   -0.062687
 Energy
        -28.089627521800
 PlusStress:  xx          yy          zz          yz          xz          xy
        -0.00910     0.05662     0.10234     0.02258    -0.03157    -0.06089
 Feature   EFS_by	Qe
 Feature   mindist	3.895281
END_CFG

BEGIN_CFG
 Size
    2
 Supercell
         4.862119      0.000000      0.000000
         0.000000      4.862119      0.000000
         0.000000      0.000000      4.862119
 AtomData:  id type       cartes_x      cartes_y      cartes_z           fx          fy          fz
             1    0       4.828197      0.483630      4.670640     0.052839   -0.427046    0.266489
             2    0       2.464982      1.947430      2.622539    -0.052839    0.427046   -0.266489
 Energy
        -27.853852698900
 PlusStress:  xx          yy          zz          yz          xz          xy
         0.93778    -0.20875     0.68671    -0.21951     0.02818    -0.04401
 Feature   EFS_by	Qe
 Feature   mindist	3.452856
END_CFG

BEGIN_CFG
 Size
    2
 Supercell
         5.169200      0.000000      0.000000
         0.000000      5.169200      0.000000
         0.000000      0.000000      5.169200
 AtomData:  id type       cartes_x      cartes_y      cartes_z           fx          fy          fz
             1    0       5.013274      1.004818      4.864310     0.384793   -0.285712    0.570077
             2    0       2.740526      1.579782      2.889490    -0.384793    0.285712   -0.570077
 Energy
        -27.435478999300
 PlusStress:  xx          yy          zz          yz          xz          xy
         1.57523    -1.08596     0.99680    -0.28661     0.42726    -0.19543
 Feature   EFS_by	Qe
 Feature   mindist	3.065271
END_CFG

BEGIN_CFG
 Size
    2
 Supercell
         4.862123      0.000000      0.000000
         0.000000      4.862123      0.000000
         0.000000      0.000000      4.862128
 AtomData:  id type       cartes_x      cartes_y      cartes_z           fx          fy          fz
             1    0       0.000000      0.000000      0.000000    -0.334341   -0.334341   -0.334341
             2    0       1.944849      1.944850      1.944851     0.334341    0.334341    0.334341
 Energy
        -27.714806053700
 PlusStress:  xx          yy          zz          yz          xz          xy
         0.79236     0.79236     0.79236     0.21244     0.21244     0.21244
 Feature   EFS_by	Qe
 Feature   mindist	3.368579
END_CFG

BEGIN_CFG
 Size
    2
 Supercell
         5.169200      0.000000      0.000000
         0.000000      5.169200      0.000000
         0.000000      0.000000      5.169200
 AtomData:  id type       cartes_x      cartes_y      cartes_z           fx          fy          fz
             1    0       0.174070     -0.054442     -0.012861    -0.127228    0.042989    0.010115
             2    0       2.410530      2.639042      2.597461     0.127228   -0.042989   -0.010115
 Energy
        -28.088036336000
 PlusStress:  xx          yy          zz          yz          xz          xy
        -0.37184    -0.29650    -0.28801     0.00216    -0.00621    -0.02587
 Feature   EFS_by	Qe
 Feature   mindist	4.204614
END_CFG

BEGIN_CFG
 Size
    2
 Supercell
         5.373921      0.000000      0.000000
         0.000000      5.373921      0.000000
         0.000000      0.000000      5.373921
 AtomData:  id type       cartes_x      cartes_y      cartes_z           fx          fy          fz
             1    0       5.121725      0.004211      0.047268     0.135557   -0.002813   -0.030020
             2    0       2.939157      2.682750      2.639692    -0.135557    0.002813    0.030020
 Energy
        -28.017918036500
 PlusStress:  xx          yy          zz          yz          xz          xy
        -0.63537    -0.52280    -0.52765     0.00057    -0.02807    -0.00242
 Feature   EFS_by	Qe
 Feature   mindist	4.319588
END_CFG

BEGIN_CFG
 Size
    2
 Supercell
         5.373921      0.000000      0.000000
         0.000000      5.373921      0.000000
         0.000000      0.000000      5.373921
 AtomData:  id type       cartes_x      cartes_y      cartes_z           fx          fy          fz
             1    0       5.297010      0.769912      3.229479     0.172911   -0.433997   -0.534702
             2    0       2.763871      1.917048      4.831402    -0.172911    0.433997    0.534702
 Energy
        -27.466250451000
 PlusStress:  xx          yy          zz          yz          xz          xy
         1.28841    -0.67627    -0.13523     0.52751    -0.21203    -0.17099
 Feature   EFS_by	Qe
 Feature   mindist	3.209186
END_CFG

BEGIN_CFG
 Size
    2
 Supercell
         4.862119      0.000000      0.000000
         0.000000      4.862119      0.000000
         0.000000      0.000000      4.862119
 AtomData:  id type       cartes_x      cartes_y      cartes_z           fx          fy          fz
             1    0       4.526783      4.845617      4.837658     0.321622    0.020841    0.030854
             2    0       2.766396      2.447561      2.455521    -0.321622   -0.020841   -0.030854
 Energy
        -28.014741107200
 PlusStress:  xx          yy          zz          yz          xz          xy
        -0.03324     0.50646     0.50445     0.00137     0.02269     0.01530
 Feature   EFS_by	Qe
 Feature   mindist	3.811064
END_CFG

BEGIN_CFG
 Size
    2
 Supercell
         5.169200      0.000000      0.000000
         0.000000      5.169200      0.000000
         0.000000      0.000000      5.169200
 AtomData:  id type       cartes_x      cartes_y      cartes_z           fx          fy          fz
             1    0       5.066313      0.611581      4.975793     0.134188   -0.350763    0.234615
             2    0       2.687487      1.973020      2.778007    -0.134188    0.350763   -0.234615
 Energy
        -27.817706046100
 PlusStress:  xx          yy          zz          yz          xz          xy
         0.44057    -0.60341     0.29777    -0.23373     0.08421    -0.13316
 Feature   EFS_by	Qe
 Feature   mindist	3.513202
END_CFG

BEGIN_CFG
 Size
    2
 Supercell
         5.066840      0.000000      0.000000
         0.000000      5.066840      0.000000
         0.000000      0.000000      5.066840
 AtomData:  id type       cartes_x      cartes_y      cartes_z           fx          fy          fz
             1    0       4.998817      0.512383      4.950225     0.084683   -0.347693    0.141807
             2    0       2.601443      2.021037      2.650035    -0.084683    0.347693   -0.141807
 Energy
        -27.910159451200
 PlusStress:  xx          yy          zz          yz          xz          xy
         0.39616    -0.46114     0.34720    -0.13663     0.03105    -0.08145
 Feature   EFS_by	Qe
 Feature   mindist	3.648879
END_CFG

BEGIN_CFG
 Size
    2
 Supercell
         4.862119      0.000000      0.000000
         0.000000      4.862119      0.000000
         0.000000      0.000000      4.862119
 AtomData:  id type       cartes_x      cartes_y      cartes_z           fx          fy          fz
             1    0       0.052262      0.061369      0.106562    -0.057736   -0.067609   -0.114790
             2    0       2.378798      2.369691      2.324498     0.057736    0.067609    0.114790
 Energy
        -28.110990500700
 PlusStress:  xx          yy          zz          yz          xz          xy
         0.24020     0.23481     0.19672     0.02026     0.01720     0.01013
 Feature   EFS_by	Qe
 Feature   mindist	3.957317
END_CFG

BEGIN_CFG
 Size
    1
 Supercell
         2.559011      2.559011      2.559011
        -2.559015      2.559015      2.559015
        -2.559015     -2.559015      2.559015
 AtomData:  id type       cartes_x      cartes_y      cartes_z           fx          fy          fz
             1    0       0.000000      0.000000      0.000000     0.000000    0.000000    0.000000
 Energy
        -13.979515550300
 PlusStress:  xx          yy          zz          yz          xz          xy
         0.00560     0.00566     0.00554     0.00000     0.00000    -0.00000
 Feature   EFS_by	Qe
 Feature   mindist	4.432337
END_CFG

BEGIN_CFG
 Size
    2
 Supercell
         4.862119      0.000000      0.000000
         0.000000      4.862119      0.000000
         0.000000      0.000000      4.862119
 AtomData:  id type       cartes_x      cartes_y      cartes_z           fx          fy          fz
             1    0       0.023443     -0.010714     -0.006107    -0.025468    0.011675    0.006660
             2    0       2.407616      2.441774      2.437166     0.025468   -0.011675   -0.006660
 Energy
        -28.129619279500
 PlusStress:  xx          yy          zz          yz          xz          xy
         0.20115     0.20336     0.20410     0.00021    -0.00042    -0.00063
 Feature   EFS_by	Qe
 Feature   mindist	4.164303
END_CFG

BEGIN_CFG
 Size
    2
 Supercell
         5.373921      0.000000      0.000000
         0.000000      5.373921      0.000000
         0.000000      0.000000      5.373921
 AtomData:  id type       cartes_x      cartes_y      cartes_z           fx          fy          fz
             1    0       0.051962      0.796746      3.356704    -0.168246   -0.515756   -0.606544
             2    0       2.634998      1.890214      4.704177     0.168246    0.515756    0.606544
 Energy
        -27.303521056300
 PlusStress:  xx          yy          zz          yz          xz          xy
         1.97836    -0.64392    -0.31306     0.58108     0.19436     0.16387
 Feature   EFS_by	Qe
 Feature   mindist	3.111821
END_CFG

BEGIN_CFG
 Size
    2
 Supercell
         5.271561      0.000000      0.000000
         0.000000      5.271561      0.000000
         0.000000      0.000000      5.271561
 AtomData:  id type       cartes_x      cartes_y      cartes_z           fx          fy          fz
             1    0       0.176191      0.127093      0.167084    -0.122294   -0.091927   -0.117015
             2    0       2.459589      2.508687      2.468696     0.122294    0.091927    0.117015
 Energy
        -28.036474024900
 PlusStress:  xx          yy          zz          yz          xz          xy
        -0.43216    -0.39665    -0.42490     0.05730     0.07680     0.05999
 Feature   EFS_by	Qe
 Feature   mindist	4.022849
END_CFG

BEGIN_CFG
 Size
    2
 Supercell
         5.169200      0.000000      0.000000
         0.000000      5.169200      0.000000
         0.000000      0.000000      5.169200
 AtomData:  id type       cartes_x      cartes_y      cartes_z           fx          fy          fz
             1    0       5.013274      1.004818      4.864310     0.384793   -0.285712    0.570077
             2    0       2.740526      1.579782      2.889490    -0.384793    0.285712   -0.570077
 Energy
        -27.435478999300
 PlusStress:  xx          yy          zz          yz          xz          xy
         1.57523    -1.08596     0.99680    -0.28661     0.42726    -0.19543
 Feature   EFS_by	Qe
 Feature   mindist	3.065271
END_CFG

BEGIN_CFG
 Size
    2
 Supercell
         5.169200      0.000000      0.000000
         0.000000      5.169200      0.000000
         0.000000      0.000000      5.169200
 AtomData:  id type       cartes_x      cartes_y      cartes_z           fx          fy          fz
             1    0       0.174070     -0.054442     -0.012861    -0.127228    0.042989    0.010115
             2    0       2.410530      2.639042      2.597461     0.127228   -0.042989   -0.010115
 Energy
        -28.088036336000
 PlusStress:  xx          yy          zz          yz          xz          xy
        -0.37184    -0.29650    -0.28801     0.00216    -0.00621    -0.02587
 Feature   EFS_by	Qe
 Feature   mindist	4.204614
END_CFG

BEGIN_CFG
 Size
    2
 Supercell
         5.169200      0.000000      0.000000
         0.000000      5.169200      0.000000
         0.000000      0.000000      5.169200
 AtomData:  id type       cartes_x      cartes_y      cartes_z           fx          fy          fz
             1    0       0.000000      0.000000      0.000000     0.000000    0.000000    0.000000
             2    0       2.584600      2.584600      2.584600     0.000000    0.000000    0.000000
 Energy
        -28.112777200300
 PlusStress:  xx          yy          zz          yz          xz          xy
        -0.35877    -0.35877    -0.35877     0.00000     0.00000     0.00000
 Feature   EFS_by	Qe
 Feature   mindist	4.476658
END_CFG

BEGIN_CFG
 Size
    1
 Supercell
         2.559011      2.559011      2.559011
        -2.559015      2.559015      2.559015
        -2.559015     -2.559015      2.559015
 AtomData:  id type       cartes_x      cartes_y      cartes_z           fx          fy          fz
             1    0       0.000000      0.000000      0.000000     0.000000    0.000000    0.000000
 Energy
        -13.979515550300
 PlusStress:  xx          yy          zz          yz          xz          xy
         0.00560     0.00566     0.00554     0.00000     0.00000    -0.00000
 Feature   EFS_by	Qe
 Feature   mindist	4.432337
END_CFG

BEGIN_CFG
 Size
    2
 Supercell
         5.169200      0.000000      0.000000
         0.000000      5.169200      0.000000
         0.000000      0.000000      5.169200
 AtomData:  id type       cartes_x      cartes_y      cartes_z           fx          fy          fz
             1    0       0.337304      4.876115      4.964642    -0.288120    0.267930    0.209016
             2    0       2.247296      2.877685      2.789158     0.288120   -0.267930   -0.209016
 Energy
        -27.913453797700
 PlusStress:  xx          yy          zz          yz          xz          xy
        -0.20469    -0.11984     0.03868     0.18008    -0.19492    -0.25250
 Feature   EFS_by	Qe
 Feature   mindist	3.517744
END_CFG

BEGIN_CFG
 Size
    1
 Supercell
         2.431061      2.431061      2.431061
        -2.431065      2.431065      2.431065
        -2.431065     -2.431065      2.431065
 AtomData:  id type       cartes_x      cartes_y      cartes_z           fx          fy          fz
             1    0       0.000000      0.000000      0.000000     0.000000    0.000000    0.000000
 Energy
        -13.957392149200
 PlusStress:  xx          yy          zz          yz          xz          xy
         0.29571     0.29545     0.29545     0.00000    -0.00005    -0.00005
 Feature   EFS_by	Qe
 Feature   mindist	4.210721
END_CFG

BEGIN_CFG
 Size
    2
 Supercell
         4.964479      0.000000      0.000000
         0.000000      4.964479      0.000000
         0.000000      0.000000      4.964479
 AtomData:  id type       cartes_x      cartes_y      cartes_z           fx          fy          fz
             1    0       4.856869      0.720625      0.250306     0.226461   -0.445914   -0.422393
             2    0       2.589850      1.761615      2.231934    -0.226461    0.445914    0.422393
 Energy
        -27.629592237800
 PlusStress:  xx          yy          zz          yz          xz          xy
         1.36483    -0.68573     0.94445     0.33107    -0.19727    -0.18166
 Feature   EFS_by	Qe
 Feature   mindist	3.185888
END_CFG

BEGIN_CFG
 Size
    2
 Supercell
         5.066840      0.000000      0.000000
         0.000000      5.066840      0.000000
         0.000000      0.000000      5.066840
 AtomData:  id type       cartes_x      cartes_y      cartes_z           fx          fy          fz
             1    0       0.422877      4.746358      4.646329    -0.533675    0.495355    0.533295
             2    0       2.110542      2.853901      2.953931     0.533675   -0.495355   -0.533295
 Energy
        -27.650311531400
 PlusStress:  xx          yy          zz          yz          xz          xy
         0.23529     0.61079     0.24388     0.51811    -0.55250    -0.51834
 Feature   EFS_by	Qe
 Feature   mindist	3.048576
END_CFG

BEGIN_CFG
 Size
    1
 Supercell
         2.175162      2.175162      2.175162
        -2.175166      2.175166      2.175166
        -2.175166     -2.175166      2.175166
 AtomData:  id type       cartes_x      cartes_y      cartes_z           fx          fy          fz
             1    0       0.000000      0.000000      0.000000     0.000000    0.000000    0.000000
 Energy
        -13.714408621900
 PlusStress:  xx          yy          zz          yz          xz          xy
         1.24805     1.24793     1.24793    -0.00000    -0.00011    -0.00019
 Feature   EFS_by	Qe
 Feature   mindist	3.767491
END_CFG

BEGIN_CFG
 Size
    2
 Supercell
         5.373921      0.000000      0.000000
         0.000000      5.373921      0.000000
         0.000000      0.000000      5.373921
 AtomData:  id type       cartes_x      cartes_y      cartes_z           fx          fy          fz
             1    0       4.712190      5.062602      4.936319     0.491179    0.495041    0.541800
             2    0       3.348691      2.998280      3.124563    -0.491179   -0.495041   -0.541800
 Energy
        -27.510262010700
 PlusStress:  xx          yy          zz          yz          xz          xy
        -0.43788     0.61842     0.18951     0.61357     0.60887     0.55572
 Feature   EFS_by	Qe
 Feature   mindist	3.066433
END_CFG

BEGIN_CFG
 Size
    2
 Supercell
         4.964479      0.000000      0.000000
         0.000000      4.964479      0.000000
         0.000000      0.000000      4.964479
 AtomData:  id type       cartes_x      cartes_y      cartes_z           fx          fy          fz
             1    0       4.650527      4.912221      0.018246     0.275169    0.058367   -0.020503
             2    0       2.796192      2.534498      2.463994    -0.275169   -0.058367    0.020503
 Energy
        -28.042426923700
 PlusStress:  xx          yy          zz          yz          xz          xy
        -0.15582     0.23165     0.24378    -0.00326    -0.01595     0.04550
 Feature   EFS_by	Qe
 Feature   mindist	3.882500
END_CFG

BEGIN_CFG
 Size
    2
 Supercell
         5.271561      0.000000      0.000000
         0.000000      5.271561      0.000000
         0.000000      0.000000      5.271561
 AtomData:  id type       cartes_x      cartes_y      cartes_z           fx          fy          fz
             1    0       0.000000      0.000000      0.000000     0.000000    0.000000    0.000000
             2    0       2.635780      2.635780      2.635780     0.000000    0.000000    0.000000
 Energy
        -28.087141761700
 PlusStress:  xx          yy          zz          yz          xz          xy
        -0.50466    -0.50466    -0.50466     0.00000     0.00000     0.00000
 Feature   EFS_by	Qe
 Feature   mindist	4.565305
END_CFG

BEGIN_CFG
 Size
    2
 Supercell
         5.066840      0.000000      0.000000
         0.000000      5.066840      0.000000
         0.000000      0.000000      5.066840
 AtomData:  id type       cartes_x      cartes_y      cartes_z           fx          fy          fz
             1    0      -0.039123      4.124255      0.033443     0.069299    0.262766   -0.059324
             2    0       2.572543      3.476005      2.499977    -0.069299   -0.262766    0.059324
 Energy
        -27.642512884200
 PlusStress:  xx          yy          zz          yz          xz          xy
         1.17356    -1.05472     1.17726    -0.03165    -0.00872     0.03691
 Feature   EFS_by	Qe
 Feature   mindist	3.540042
END_CFG

BEGIN_CFG
 Size
    2
 Supercell
         4.862119      0.000000      0.000000
         0.000000      4.862119      0.000000
         0.000000      0.000000      4.862119
 AtomData:  id type       cartes_x      cartes_y      cartes_z           fx          fy          fz
             1    0       0.328075      4.521421      4.616377    -0.440106    0.447058    0.377766
             2    0       2.102984      2.771758      2.676802     0.440106   -0.447058   -0.377766
 Energy
        -27.790692078600
 PlusStress:  xx          yy          zz          yz          xz          xy
         0.45791     0.41264     0.74275     0.31724    -0.31333    -0.36219
 Feature   EFS_by	Qe
 Feature   mindist	3.158096
END_CFG

BEGIN_CFG
 Size
    2
 Supercell
         5.373921      0.000000      0.000000
         0.000000      5.373921      0.000000
         0.000000      0.000000      5.373921
 AtomData:  id type       cartes_x      cartes_y      cartes_z           fx          fy          fz
             1    0       0.013140     -0.008192     -0.000174    -0.007290    0.004568    0.000098
             2    0       2.673821      2.695152      2.687135     0.007290   -0.004568   -0.000098
 Energy
        -28.053954075000
 PlusStress:  xx          yy          zz          yz          xz          xy
        -0.63309    -0.63309    -0.63324     0.00014     0.00000    -0.00028
 Feature   EFS_by	Qe
 Feature   mindist	4.629157
END_CFG

BEGIN_CFG
 Size
    2
 Supercell
         5.373921      0.000000      0.000000
         0.000000      5.373921      0.000000
         0.000000      0.000000      5.373921
 AtomData:  id type       cartes_x      cartes_y      cartes_z           fx          fy          fz
             1    0       0.145960     -0.126373     -0.064881    -0.084283    0.073894    0.039299
             2    0       2.541000      2.813334      2.751842     0.084283   -0.073894   -0.039299
 Energy
        -28.030442076900
 PlusStress:  xx          yy          zz          yz          xz          xy
        -0.60075    -0.59149    -0.56940     0.02080    -0.02365    -0.04460
 Feature   EFS_by	Qe
 Feature   mindist	4.266248
END_CFG

BEGIN_CFG
 Size
    2
 Supercell
         5.169200      0.000000      0.000000
         0.000000      5.169200      0.000000
         0.000000      0.000000      5.169200
 AtomData:  id type       cartes_x      cartes_y      cartes_z           fx          fy          fz
             1    0       0.008416     -0.005598      0.000724    -0.006278    0.004217   -0.000535
             2    0       2.576184      2.590198      2.583876     0.006278   -0.004217    0.000535
 Energy
        -28.112700192100
 PlusStress:  xx          yy          zz          yz          xz          xy
        -0.35839    -0.35839    -0.35839     0.00000    -0.00000    -0.00013
 Feature   EFS_by	Qe
 Feature   mindist	4.459654
END_CFG

BEGIN_CFG
 Size
    1
 Supercell
         2.559014      7.677032      7.677032
        -2.559014      2.559014      2.559014
        -2.559014     -2.559014      2.559014
 AtomData:  id type       cartes_x      cartes_y      cartes_z           fx          fy          fz
             1    0       0.000000      0.000000      0.000000     0.000000    0.000000    0.000000
 Energy
        -13.721530794000
 PlusStress:  xx          yy          zz          yz          xz          xy
        -0.03520    -0.32570    -0.03520    -0.00000    -0.07890    -0.00000
 Feature   EFS_by	Qe
 Feature   mindist	4.432343
END_CFG

BEGIN_CFG
 Size
    1
 Supercell
         3.198765      3.198765      3.198765
        -3.198765      3.198770      3.198770
        -3.198770     -3.198770      3.198770
 AtomData:  id type       cartes_x      cartes_y      cartes_z           fx          fy          fz
             1    0       0.000000      0.000000      0.000000     0.000000    0.000000    0.000000
 Energy
        -13.729665910000
 PlusStress:  xx          yy          zz          yz          xz          xy
        -0.60860    -0.60860    -0.60860     0.00000     0.00000     0.00012
 Feature   EFS_by	Qe
 Feature   mindist	5.540423
END_CFG

BEGIN_CFG
 Size
    2
 Supercell
         5.169200      0.000000      0.000000
         0.000000      5.169200      0.000000
         0.000000      0.000000      5.169200
 AtomData:  id type       cartes_x      cartes_y      cartes_z           fx          fy          fz
             1    0       0.371021      0.427178      5.051677    -0.339428   -0.352677    0.147169
             2    0       2.213579      2.157422      2.702124     0.339428    0.352677   -0.147169
 Energy
        -27.840039655100
 PlusStress:  xx          yy          zz          yz          xz          xy
        -0.13418    -0.25922     0.36867    -0.14889    -0.14229     0.35028
 Feature   EFS_by	Qe
 Feature   mindist	3.450966
END_CFG

BEGIN_CFG
 Size
    2
 Supercell
         5.373922      0.000000      0.000000
         0.000000      5.373922      0.000000
         0.000000      0.000000      5.373927
 AtomData:  id type       cartes_x      cartes_y      cartes_z           fx          fy          fz
             1    0       0.000000      0.000000      0.000000    -0.218026   -0.218026   -0.218026
             2    0       2.149569      2.149570      2.149570     0.218026    0.218026    0.218026
 Energy
        -27.797859149500
 PlusStress:  xx          yy          zz          yz          xz          xy
        -0.16458    -0.16458    -0.16458     0.21417     0.21417     0.21417
 Feature   EFS_by	Qe
 Feature   mindist	3.723164
END_CFG

BEGIN_CFG
 Size
    2
 Supercell
         5.271561      0.000000      0.000000
         0.000000      5.271561      0.000000
         0.000000      0.000000      5.271561
 AtomData:  id type       cartes_x      cartes_y      cartes_z           fx          fy          fz
             1    0       0.355987      4.984103      5.050649    -0.269820    0.242615    0.203190
             2    0       2.279793      2.923238      2.856692     0.269820   -0.242615   -0.203190
 Energy
        -27.897988614600
 PlusStress:  xx          yy          zz          yz          xz          xy
        -0.33814    -0.22489    -0.12038     0.18562    -0.20848    -0.25098
 Feature   EFS_by	Qe
 Feature   mindist	3.572344
END_CFG

BEGIN_CFG
 Size
    2
 Supercell
         4.964479      0.000000      0.000000
         0.000000      4.964479      0.000000
         0.000000      0.000000      4.964479
 AtomData:  id type       cartes_x      cartes_y      cartes_z           fx          fy          fz
             1    0       0.161552     -0.016394      0.019875    -0.151604    0.016420   -0.019985
             2    0       2.320688      2.498634      2.462364     0.151604   -0.016420    0.019985
 Energy
        -28.110654304000
 PlusStress:  xx          yy          zz          yz          xz          xy
        -0.04640     0.06010     0.05988    -0.00101     0.00955    -0.00786
 Feature   EFS_by	Qe
 Feature   mindist	4.077675
END_CFG

BEGIN_CFG
 Size
    2
 Supercell
         5.373921      0.000000      0.000000
         0.000000      5.373921      0.000000
         0.000000      0.000000      5.373921
 AtomData:  id type       cartes_x      cartes_y      cartes_z           fx          fy          fz
             1    0       0.271641      5.326431      3.809509    -0.395503    0.087105   -0.158791
             2    0       2.415320      2.734450      4.251372     0.395503   -0.087105    0.158791
 Energy
        -27.530740347400
 PlusStress:  xx          yy          zz          yz          xz          xy
         0.53463     1.01383    -1.09776    -0.03505     0.15959    -0.08507
 Feature   EFS_by	Qe
 Feature   mindist	3.392487
END_CFG

BEGIN_CFG
 Size
    2
 Supercell
         5.373921      0.000000      0.000000
         0.000000      5.373921      0.000000
         0.000000      0.000000      5.373921
 AtomData:  id type       cartes_x      cartes_y      cartes_z           fx          fy          fz
             1    0       0.051962      0.796746      3.356704    -0.168246   -0.515756   -0.606544
             2    0       2.634998      1.890214      4.704177     0.168246    0.515756    0.606544
 Energy
        -27.303521056300
 PlusStress:  xx          yy          zz          yz          xz          xy
         1.97836    -0.64392    -0.31306     0.58108     0.19436     0.16387
 Feature   EFS_by	Qe
 Feature   mindist	3.111821
END_CFG

BEGIN_CFG
 Size
    2
 Supercell
         5.373921      0.000000      0.000000
         0.000000      5.373921      0.000000
         0.000000      0.000000      5.373921
 AtomData:  id type       cartes_x      cartes_y      cartes_z           fx          fy          fz
             1    0       5.137251      0.187180      3.795410     0.390445   -0.331119   -0.178190
             2    0       2.923630      2.499781      4.265471    -0.390445    0.331119    0.178190
 Energy
        -27.503896587200
 PlusStress:  xx          yy          zz          yz          xz          xy
         0.75165     0.89428    -1.09178     0.14192    -0.16743    -0.30992
 Feature   EFS_by	Qe
 Feature   mindist	3.235614
END_CFG

BEGIN_CFG
 Size
    2
 Supercell
         4.964479      0.000000      0.000000
         0.000000      4.964479      0.000000
         0.000000      0.000000      4.964479
 AtomData:  id type       cartes_x      cartes_y      cartes_z           fx          fy          fz
             1    0       0.023149     -0.012419     -0.005462    -0.022264    0.011985    0.005339
             2    0       2.459090      2.494659      2.487702     0.022264   -0.011985   -0.005339
 Energy
        -28.135427549800
 PlusStress:  xx          yy          zz          yz          xz          xy
        -0.00809    -0.00674    -0.00629     0.00022    -0.00045    -0.00090
 Feature   EFS_by	Qe
 Feature   mindist	4.252062
END_CFG

BEGIN_CFG
 Size
    2
 Supercell
         5.271561      0.000000      0.000000
         0.000000      5.271561      0.000000
         0.000000      0.000000      5.271561
 AtomData:  id type       cartes_x      cartes_y      cartes_z           fx          fy          fz
             1    0       4.831477      5.144771      0.035708     0.252884    0.113290   -0.033242
             2    0       3.075864      2.762570      2.600072    -0.252884   -0.113290    0.033242
 Energy
        -27.955280147000