BEGIN_CFG
 Size
    2
 Supercell
         4.854649      0.000000      0.000000
         0.000000      4.854649      0.000000
         0.000000      0.000000      4.854649
 AtomData:  id type       cartes_x      cartes_y      cartes_z           fx          fy          fz
             1    0       0.363046      4.602011      4.474943    -0.517975    0.442596    0.524470
             2    0       2.064278      2.679962      2.807030     0.517975   -0.442596   -0.524470
 Energy
        -27.709011797300
 PlusStress:  xx          yy          zz          yz          xz          xy
         0.51169     0.95038     0.44310     0.40927    -0.46442    -0.40633
 Feature   EFS_by	Qe
 Feature   mindist	3.061110
END_CFG

BEGIN_CFG
 Size
    2
 Supercell
         4.956852      0.000000      0.000000
         0.000000      4.956852      0.000000
         0.000000      0.000000      4.956852
 AtomData:  id type       cartes_x      cartes_y      cartes_z           fx          fy          fz
             1    0       0.552006      0.437821      4.648550    -0.655441   -0.671136    0.612699
             2    0       1.926420      2.040605      2.786728     0.655441    0.671136   -0.612699
 Energy
        -27.418102216400
 PlusStress:  xx          yy          zz          yz          xz          xy
         0.04831     0.57891     1.22101    -0.61335    -0.59133     0.64053
 Feature   EFS_by	Qe
 Feature   mindist	2.815016
END_CFG

BEGIN_CFG
 Size
    2
 Supercell
         4.854651      0.000000      0.000000
         0.000000      4.854651      0.000000
         0.000000      0.000000      4.854656
 AtomData:  id type       cartes_x      cartes_y      cartes_z           fx          fy          fz
             1    0       0.000000      0.000000      0.000000     0.000000    0.000000    0.000000
             2    0       2.427326      2.427327      2.427342     0.000000    0.000000    0.000000
 Energy
        -27.942743181200
 PlusStress:  xx          yy          zz          yz          xz          xy
         0.58806     0.58806     0.58806     0.00000     0.00000     0.00000
 Feature   EFS_by	Qe
 Feature   mindist	4.204244
END_CFG

BEGIN_CFG
 Size
    2
 Supercell
         5.365664      0.000000      0.000000
         0.000000      5.365664      0.000000
         0.000000      0.000000      5.365664
 AtomData:  id type       cartes_x      cartes_y      cartes_z           fx          fy          fz
             1    0       4.608229      5.124318      4.915732     0.462146    0.460290    0.571975
             2    0       3.440267      2.924179      3.132764    -0.462146   -0.460290   -0.571975
 Energy
        -27.465460640500
 PlusStress:  xx          yy          zz          yz          xz          xy
        -0.64564     0.96208     0.20751     0.57557     0.57387     0.46224
 Feature   EFS_by	Qe
 Feature   mindist	3.063286
END_CFG

BEGIN_CFG
 Size
    2
 Supercell
         5.059055      0.000000      0.000000
         0.000000      5.059055      0.000000
         0.000000      0.000000      5.059055
 AtomData:  id type       cartes_x      cartes_y      cartes_z           fx          fy          fz
             1    0       0.088058     -0.054979     -0.017269    -0.075889    0.047978    0.015148
             2    0       2.441469      2.584506      2.546796     0.075889   -0.047978   -0.015148
 Energy
        -28.120161145900
 PlusStress:  xx          yy          zz          yz          xz          xy
        -0.18463    -0.16786    -0.15800     0.00285    -0.00452    -0.01439
 Feature   EFS_by	Qe
 Feature   mindist	4.197361
END_CFG

BEGIN_CFG
 Size
    2
 Supercell
         4.956852      0.000000      0.000000
         0.000000      4.956852      0.000000
         0.000000      0.000000      4.956852
 AtomData:  id type       cartes_x      cartes_y      cartes_z           fx          fy          fz
             1    0       0.098204     -0.084598     -0.030595    -0.096043    0.083248    0.030544
             2    0       2.380222      2.563024      2.509021     0.096043   -0.083248   -0.030544
 Energy
        -28.118161381200
 PlusStress:  xx          yy          zz          yz          xz          xy
         0.00917     0.01990     0.04730     0.00816    -0.00951    -0.02550
 Feature   EFS_by	Qe
 Feature   mindist	4.047614
END_CFG

BEGIN_CFG
 Size
    2
 Supercell
         4.752446      0.000000      0.000000
         0.000000      4.752446      0.000000
         0.000000      0.000000      4.752451
 AtomData:  id type       cartes_x      cartes_y      cartes_z           fx          fy          fz
             1    0       0.000000      0.000000      0.000000     0.000000    0.000000    0.000000
             2    0       2.376223      2.376224      2.376239     0.000000    0.000000    0.000000
 Energy
        -27.896329128200
 PlusStress:  xx          yy          zz          yz          xz          xy
         0.87830     0.87830     0.87830     0.00000     0.00000     0.00000
 Feature   EFS_by	Qe
 Feature   mindist	4.115731
END_CFG

BEGIN_CFG
 Size
    1
 Supercell
         2.708387      2.708391      2.708396
        -2.708405      2.708410      2.708415
        -2.708419     -2.708424      2.708429
 AtomData:  id type       cartes_x      cartes_y      cartes_z           fx          fy          fz
             1    0       0.000000      0.000000      0.000000     0.000000    0.000000    0.000000
 Energy
        -13.966726879100
 PlusStress:  xx          yy          zz          yz          xz          xy
        -0.24392    -0.24400    -0.24392    -0.00000     0.00000     0.00000
 Feature   EFS_by	Qe
 Feature   mindist	4.691071
END_CFG

BEGIN_CFG
 Size
    1
 Supercell
         2.248469      2.248469      2.248469
        -2.248473      2.248473      2.248473
        -2.248473     -2.248473      2.248473
 AtomData:  id type       cartes_x      cartes_y      cartes_z           fx          fy          fz
             1    0       0.000000      0.000000      0.000000     0.000000    0.000000    0.000000
 Energy
        -13.834049195000
 PlusStress:  xx          yy          zz          yz          xz          xy
         0.89926     0.89930     0.89959    -0.00008    -0.00004     0.00000
 Feature   EFS_by	Qe
 Feature   mindist	3.894462
END_CFG

BEGIN_CFG
 Size
    2
 Supercell
         5.263461      0.000000      0.000000
         0.000000      5.263461      0.000000
         0.000000      0.000000      5.263461
 AtomData:  id type       cartes_x      cartes_y      cartes_z           fx          fy          fz
             1    0       0.600152      0.492476      4.919207    -0.606359   -0.638570    0.610007
             2    0       2.031579      2.139255      2.975985     0.606359    0.638570   -0.610007
 Energy
        -27.426132024300
 PlusStress:  xx          yy          zz          yz          xz          xy
        -0.17030     0.21368     0.82205    -0.72458    -0.68589     0.71615
 Feature   EFS_by	Qe
 Feature   mindist	2.921810
END_CFG

BEGIN_CFG
 Size
    1
 Supercell
         2.963889      2.963889      2.963889
        -2.963889      2.963895      2.963895
        -2.963895     -2.963895      2.963895
 AtomData:  id type       cartes_x      cartes_y      cartes_z           fx          fy          fz
             1    0       0.000000      0.000000      0.000000     0.000000    0.000000    0.000000
 Energy
        -13.863188915900
 PlusStress:  xx          yy          zz          yz          xz          xy
        -0.49657    -0.49648    -0.49648     0.00000     0.00000    -0.00010
 Feature   EFS_by	Qe
 Feature   mindist	5.133607
END_CFG

BEGIN_CFG
 Size
    2
 Supercell
         5.467872      0.000000      0.000000
         0.000000      5.467872      0.000000
         0.000000      0.000000      5.467878
 AtomData:  id type       cartes_x      cartes_y      cartes_z           fx          fy          fz
             1    0       0.000000      0.000000      0.000000     0.000000    0.000000    0.000000
             2    0       2.733937      2.733937      2.733955     0.000000    0.000000    0.000000
 Energy
        -27.925629260200
 PlusStress:  xx          yy          zz          yz          xz          xy
        -0.55806    -0.55806    -0.55806     0.00000     0.00000     0.00000
 Feature   EFS_by	Qe
 Feature   mindist	4.735308
END_CFG

BEGIN_CFG
 Size
    2
 Supercell
         5.365664      0.000000      0.000000
         0.000000      5.365664      0.000000
         0.000000      0.000000      5.365664
 AtomData:  id type       cartes_x      cartes_y      cartes_z           fx          fy          fz
             1    0       4.381980      5.050038      4.985063     0.367241    0.658942    0.697470
             2    0       3.666516      2.998459      3.063433    -0.367241   -0.658942   -0.697470
 Energy
        -27.276522055200
 PlusStress:  xx          yy          zz          yz          xz          xy
        -0.99314     1.18093     0.87669     0.81882     0.45260     0.42749
 Feature   EFS_by	Qe
 Feature   mindist	2.900608
END_CFG

BEGIN_CFG
 Size
    2
 Supercell
         5.365664      0.000000      0.000000
         0.000000      5.365664      0.000000
         0.000000      0.000000      5.365664
 AtomData:  id type       cartes_x      cartes_y      cartes_z           fx          fy          fz
             1    0       0.294666      5.088951      4.642545    -0.384121    0.371163    0.378404
             2    0       2.388166      2.959546      3.405951     0.384121   -0.371163   -0.378404
 Energy
        -27.614431686200
 PlusStress:  xx          yy          zz          yz          xz          xy
         0.31814     0.36764    -0.69642     0.38324    -0.39672    -0.38381
 Feature   EFS_by	Qe
 Feature   mindist	3.232069
END_CFG

BEGIN_CFG
 Size
    2
 Supercell
         4.956852      0.000000      0.000000
         0.000000      4.956852      0.000000
         0.000000      0.000000      4.956852
 AtomData:  id type       cartes_x      cartes_y      cartes_z           fx          fy          fz
             1    0       4.735636      4.735384      0.219040     0.239700    0.239913   -0.237930
             2    0       2.699642      2.699893      2.259385    -0.239700   -0.239913    0.237930
 Energy
        -27.985429002100
 PlusStress:  xx          yy          zz          yz          xz          xy
         0.16214     0.16170     0.16662    -0.14727    -0.14716     0.14839
 Feature   EFS_by	Qe
 Feature   mindist	3.528669
END_CFG

BEGIN_CFG
 Size
    2
 Supercell
         5.672278      0.000000      0.000000
         0.000000      5.672278      0.000000
         0.000000      0.000000      5.672283
 AtomData:  id type       cartes_x      cartes_y      cartes_z           fx          fy          fz
             1    0       0.000000      0.000000      0.000000     0.000000    0.000000    0.000000
             2    0       2.836139      2.836140      2.836158     0.000000    0.000000    0.000000
 Energy
        -27.850845296500
 PlusStress:  xx          yy          zz          yz          xz          xy
        -0.78472    -0.78472    -0.78472     0.00000     0.00000     0.00000
 Feature   EFS_by	Qe
 Feature   mindist	4.912328
END_CFG

BEGIN_CFG
 Size
    1
 Supercell
         2.555085      3.832630      3.832636
        -2.555103      2.555103      2.555109
        -2.555115     -2.555121      2.555127
 AtomData:  id type       cartes_x      cartes_y      cartes_z           fx          fy          fz
             1    0       0.000000      0.000000      0.000000     0.000000    0.000000    0.000000
 Energy
        -13.909403781500
 PlusStress:  xx          yy          zz          yz          xz          xy
        -0.27239    -0.22683    -0.20248    -0.07352    -0.20194    -0.02014
 Feature   EFS_by	Qe
 Feature   mindist	4.425571
END_CFG

BEGIN_CFG
 Size
    1
 Supercell
         2.171817      2.171817      2.171817
        -2.171821      2.171821      2.171821
        -2.171821     -2.171821      2.171821
 AtomData:  id type       cartes_x      cartes_y      cartes_z           fx          fy          fz
             1    0       0.000000      0.000000      0.000000     0.000000    0.000000    0.000000
 Energy
        -13.722442783600
 PlusStress:  xx          yy          zz          yz          xz          xy
         1.25686     1.25705     1.25693     0.00008     0.00004    -0.00000
 Feature   EFS_by	Qe
 Feature   mindist	3.761698
END_CFG

BEGIN_CFG
 Size
    2
 Supercell
         4.752446      0.000000      0.000000
         0.000000      4.752446      0.000000
         0.000000      0.000000      4.752451
 AtomData:  id type       cartes_x      cartes_y      cartes_z           fx          fy          fz
             1    0       0.000000      0.000000      0.000000     0.000000    0.000000    0.000000
             2    0       2.376223      2.376224      2.376239     0.000000    0.000000    0.000000
 Energy
        -27.896329128200
 PlusStress:  xx          yy          zz          yz          xz          xy
         0.87830     0.87830     0.87830     0.00000     0.00000     0.00000
 Feature   EFS_by	Qe
 Feature   mindist	4.115731
END_CFG

BEGIN_CFG
 Size
    2
 Supercell
         5.416770      0.000000      0.000000
         0.000000      5.416770      0.000000
         0.000000      0.000000      5.416775
 AtomData:  id type       cartes_x      cartes_y      cartes_z           fx          fy          fz
             1    0       0.000000      0.000000      0.000000     0.000000    0.000000    0.000000
             2    0       2.708385      2.708386      2.708403     0.000000    0.000000    0.000000
 Energy
        -27.940525045000
 PlusStress:  xx          yy          zz          yz          xz          xy
        -0.49163    -0.49163    -0.49163     0.00000     0.00000     0.00000
 Feature   EFS_by	Qe
 Feature   mindist	4.691052
END_CFG

BEGIN_CFG
 Size
    1
 Supercell
         2.427325      2.427325      2.427325
        -2.427329      2.427329      2.427329
        -2.427329     -2.427329      2.427329
 AtomData:  id type       cartes_x      cartes_y      cartes_z           fx          fy          fz
             1    0       0.000000      0.000000      0.000000     0.000000    0.000000    0.000000
 Energy
        -13.966802118600
 PlusStress:  xx          yy          zz          yz          xz          xy
         0.29598     0.29608     0.29603     0.00005     0.00000    -0.00000
 Feature   EFS_by	Qe
 Feature   mindist	4.204251
END_CFG

BEGIN_CFG
 Size
    2
 Supercell
         5.212364      0.000000      0.000000
         0.000000      5.212364      0.000000
         0.000000      0.000000      5.212370
 AtomData:  id type       cartes_x      cartes_y      cartes_z           fx          fy          fz
             1    0       0.000000      0.000000      0.000000     0.000000    0.000000    0.000000
             2    0       2.606183      2.606183      2.606200     0.000000    0.000000    0.000000
 Energy
        -27.980363602600
 PlusStress:  xx          yy          zz          yz          xz          xy
        -0.18138    -0.18138    -0.18138     0.00000     0.00000     0.00000
 Feature   EFS_by	Qe
 Feature   mindist	4.514032
END_CFG

BEGIN_CFG
 Size
    2
 Supercell
         5.059055      0.000000      0.000000
         0.000000      5.059055      0.000000
         0.000000      0.000000      5.059055
 AtomData:  id type       cartes_x      cartes_y      cartes_z           fx          fy          fz
             1    0       0.004707      0.245379      4.827413    -0.004916   -0.219336    0.210528
             2    0       2.524821      2.284149      2.761170     0.004916    0.219336   -0.210528
 Energy
        -28.029330900000
 PlusStress:  xx          yy          zz          yz          xz          xy
         0.09511    -0.14421    -0.12138    -0.15360    -0.00333     0.00357
 Feature   EFS_by	Qe
 Feature   mindist	3.844076
END_CFG

BEGIN_CFG
 Size
    1
 Supercell
         2.197366      2.197366      2.197366
        -2.197370      2.197370      2.197370
        -2.197370     -2.197370      2.197370
 AtomData:  id type       cartes_x      cartes_y      cartes_z           fx          fy          fz
             1    0       0.000000      0.000000      0.000000     0.000000    0.000000    0.000000
 Energy
        -13.764266411800
 PlusStress:  xx          yy          zz          yz          xz          xy
         1.12955     1.12974     1.12943     0.00004    -0.00008    -0.00004
 Feature   EFS_by	Qe
 Feature   mindist	3.805950
END_CFG

BEGIN_CFG
 Size
    2
 Supercell
         5.365664      0.000000      0.000000
         0.000000      5.365664      0.000000
         0.000000      0.000000      5.365664
 AtomData:  id type       cartes_x      cartes_y      cartes_z           fx          fy          fz
             1    0       5.359159      0.742554      0.464872     0.011634   -0.383256   -0.457681
             2    0       2.689337      1.940278      2.217960    -0.011634    0.383256    0.457681
 Energy
        -27.571156194500
 PlusStress:  xx          yy          zz          yz          xz          xy
         0.92137    -0.71868    -0.10737     0.46224    -0.01376    -0.01163
 Feature   EFS_by	Qe
 Feature   mindist	3.411130
END_CFG

BEGIN_CFG
 Size
    1
 Supercell
         2.171817      2.171817      2.171817
        -2.171821      2.171821      2.171821
        -2.171821     -2.171821      2.171821
 AtomData:  id type       cartes_x      cartes_y      cartes_z           fx          fy          fz
             1    0       0.000000      0.000000      0.000000     0.000000    0.000000    0.000000
 Energy
        -13.722442783600
 PlusStress:  xx          yy          zz          yz          xz          xy
         1.25686     1.25705     1.25693     0.00008     0.00004    -0.00000
 Feature   EFS_by	Qe
 Feature   mindist	3.761698
END_CFG

BEGIN_CFG
 Size
    1
 Supercell
         3.168300      3.168300      3.168300
        -3.168300      3.168306      3.168306
        -3.168306     -3.168306      3.168306
 AtomData:  id type       cartes_x      cartes_y      cartes_z           fx          fy          fz
             1    0       0.000000      0.000000      0.000000     0.000000    0.000000    0.000000
 Energy
        -13.751817202700
 PlusStress:  xx          yy          zz          yz          xz          xy
        -0.60376    -0.60376    -0.60388    -0.00000    -0.00000     0.00000
 Feature   EFS_by	Qe
 Feature   mindist	5.487657
END_CFG

BEGIN_CFG
 Size
    1
 Supercell
         2.606182      2.606182      2.606182
        -2.606186      2.606186      2.606186
        -2.606186     -2.606186      2.606186
 AtomData:  id type       cartes_x      cartes_y      cartes_z           fx          fy          fz
             1    0       0.000000      0.000000      0.000000     0.000000    0.000000    0.000000
 Energy
        -13.986312138100
 PlusStress:  xx          yy          zz          yz          xz          xy
        -0.08868    -0.08868    -0.08874    -0.00000     0.00000    -0.00000
 Feature   EFS_by	Qe
 Feature   mindist	4.514039
END_CFG

BEGIN_CFG
 Size
    1
 Supercell
         2.299571      2.299571      2.299571
        -2.299575      2.299575      2.299575
        -2.299575     -2.299575      2.299575
 AtomData:  id type       cartes_x      cartes_y      cartes_z           fx          fy          fz
             1    0       0.000000      0.000000      0.000000     0.000000    0.000000    0.000000
 Energy
        -13.887733586000
 PlusStress:  xx          yy          zz          yz          xz          xy
         0.69781     0.69768     0.69786     0.00004    -0.00004     0.00004
 Feature   EFS_by	Qe
 Feature   mindist	3.982974
END_CFG

BEGIN_CFG
 Size
    1
 Supercell
         2.836135      2.836135      2.836135
        -2.836135      2.836140      2.836140
        -2.836140     -2.836140      2.836140
 AtomData:  id type       cartes_x      cartes_y      cartes_z           fx          fy          fz
             1    0       0.000000      0.000000      0.000000     0.000000    0.000000    0.000000
 Energy
        -13.922298304900
 PlusStress:  xx          yy          zz          yz          xz          xy
        -0.39052    -0.39052    -0.39060     0.00008    -0.00000    -0.00000
 Feature   EFS_by	Qe
 Feature   mindist	4.912331
END_CFG

BEGIN_CFG
 Size
    2
 Supercell
         5.161258      0.000000      0.000000
         0.000000      5.161258      0.000000
         0.000000      0.000000      5.161258
 AtomData:  id type       cartes_x      cartes_y      cartes_z           fx          fy          fz
             1    0       0.262981      4.972010      5.171145    -0.201209    0.157793   -0.009112
             2    0       2.317648      2.769877      2.570742     0.201209   -0.157793    0.009112
 Energy
        -28.032180748400
 PlusStress:  xx          yy          zz          yz          xz          xy
        -0.33554    -0.23884    -0.11588    -0.00568     0.00745    -0.12990
 Feature   EFS_by	Qe
 Feature   mindist	3.953356
END_CFG

BEGIN_CFG
 Size
    1
 Supercell
         2.478428      2.478428      2.478428
        -2.478432      2.478432      2.478432
        -2.478432     -2.478432      2.478432
 AtomData:  id type       cartes_x      cartes_y      cartes_z           fx          fy          fz
             1    0       0.000000      0.000000      0.000000     0.000000    0.000000    0.000000
 Energy
        -13.981222112300
 PlusStress:  xx          yy          zz          yz          xz          xy
         0.16841     0.16841     0.16835    -0.00000    -0.00000    -0.00000
 Feature   EFS_by	Qe
 Feature   mindist	4.292763
END_CFG

BEGIN_CFG
 Size
    2
 Supercell
         5.059055      0.000000      0.000000
         0.000000      5.059055      0.000000
         0.000000      0.000000      5.059055
 AtomData:  id type       cartes_x      cartes_y      cartes_z           fx          fy          fz
             1    0       4.847277      0.887849      4.864887     0.434881   -0.362908    0.411397
             2    0       2.741305      1.641679      2.723695    -0.434881    0.362908   -0.411397
 Energy
        -27.517967186700
 PlusStress:  xx          yy          zz          yz          xz          xy
         1.27551    -1.00731     1.33757    -0.26131     0.35772    -0.27569
 Feature   EFS_by	Qe
 Feature   mindist	3.096462
END_CFG

BEGIN_CFG
 Size
    2
 Supercell
         5.059055      0.000000      0.000000
         0.000000      5.059055      0.000000
         0.000000      0.000000      5.059055
 AtomData:  id type       cartes_x      cartes_y      cartes_z           fx          fy          fz
             1    0       5.087007      4.687129      0.060973    -0.030038    0.283221   -0.065024
             2    0       2.501575      2.901453      2.468554     0.030038   -0.283221    0.065024
 Energy
        -28.013241895900
 PlusStress:  xx          yy          zz          yz          xz          xy
         0.13600    -0.34560     0.12221    -0.05956     0.00606    -0.02746
 Feature   EFS_by	Qe
 Feature   mindist	3.886373
END_CFG

BEGIN_CFG
 Size
    1
 Supercell
         2.555087      7.665249      7.665249
        -2.555098      2.555109      2.555109
        -2.555120     -2.555120      2.555131
 AtomData:  id type       cartes_x      cartes_y      cartes_z           fx          fy          fz
             1    0       0.000000      0.000000      0.000000     0.000000    0.000000    0.000000
 Energy
        -13.713634594000
 PlusStress:  xx          yy          zz          yz          xz          xy
        -0.05171    -0.27495    -0.05158     0.00000    -0.09300    -0.00000
 Feature   EFS_by	Qe
 Feature   mindist	4.425572
END_CFG

BEGIN_CFG
 Size
    2
 Supercell
         5.365664      0.000000      0.000000
         0.000000      5.365664      0.000000
         0.000000      0.000000      5.365664
 AtomData:  id type       cartes_x      cartes_y      cartes_z           fx          fy          fz
             1    0       5.364471      0.593111      0.584196     0.002067   -0.432831   -0.435146
             2    0       2.684025      2.089721      2.098637    -0.002067    0.432831    0.435146
 Energy
        -27.586856756100
 PlusStress:  xx          yy          zz          yz          xz          xy
         0.87244    -0.44253    -0.42296     0.50621    -0.00241    -0.00241
 Feature   EFS_by	Qe
 Feature   mindist	3.423181
END_CFG

BEGIN_CFG
 Size
    1
 Supercell
         3.193853      3.193858      3.193864
        -3.193869      3.193875      3.193880
        -3.193886     -3.193891      3.193897
 AtomData:  id type       cartes_x      cartes_y      cartes_z           fx          fy          fz
             1    0       0.000000      0.000000      0.000000     0.000000    0.000000    0.000000
 Energy
        -13.737094482300
 PlusStress:  xx          yy          zz          yz          xz          xy
        -0.61299    -0.61299    -0.61299    -0.00000     0.00000     0.00012
 Feature   EFS_by	Qe
 Feature   mindist	5.531924
END_CFG

BEGIN_CFG
 Size
    2
 Supercell
         5.059055      0.000000      0.000000
         0.000000      5.059055      0.000000
         0.000000      0.000000      5.059055
 AtomData:  id type       cartes_x      cartes_y      cartes_z           fx          fy          fz
             1    0       0.574504      0.484076      4.723891    -0.659467   -0.683246    0.641007
             2    0       1.955023      2.045451      2.864691     0.659467    0.683246   -0.641007
 Energy
        -27.362118055000
 PlusStress:  xx          yy          zz          yz          xz          xy
        -0.01165     0.38423     1.10598    -0.67015    -0.64388     0.68287
 Feature   EFS_by	Qe
 Feature   mindist	2.792911
END_CFG

BEGIN_CFG
 Size
    2
 Supercell
         4.854649      0.000000      0.000000
         0.000000      4.854649      0.000000
         0.000000      0.000000      4.854649
 AtomData:  id type       cartes_x      cartes_y      cartes_z           fx          fy          fz
             1    0      -0.014322      0.359627      4.844952     0.018556   -0.340774    0.012567
             2    0       2.441646      2.067697      2.437021    -0.018556    0.340774   -0.012567
 Energy
        -27.996914520000
 PlusStress:  xx          yy          zz          yz          xz          xy
         0.56485    -0.06965     0.56558    -0.00966     0.00053    -0.01429
 Feature   EFS_by	Qe
 Feature   mindist	3.803853
END_CFG

BEGIN_CFG
 Size
    2
 Supercell
         5.365667      0.000000      0.000000
         0.000000      5.365667      0.000000
         0.000000      0.000000      5.365672
 AtomData:  id type       cartes_x      cartes_y      cartes_z           fx          fy          fz
             1    0       0.000000      0.000000      0.000000     0.000000    0.000000    0.000000
             2    0       2.682834      2.682835      2.682852     0.000000    0.000000    0.000000
 Energy
        -27.953611000600
 PlusStress:  xx          yy          zz          yz          xz          xy
        -0.42154    -0.42154    -0.42154     0.00000     0.00000     0.00000
 Feature   EFS_by	Qe
 Feature   mindist	4.646796
END_CFG

BEGIN_CFG
 Size
    2
 Supercell
         5.059055      0.000000      0.000000
         0.000000      5.059055      0.000000
         0.000000      0.000000      5.059055
 AtomData:  id type       cartes_x      cartes_y      cartes_z           fx          fy          fz
             1    0       4.596219      4.763802      4.576256     0.603267    0.542835    0.602217
             2    0       2.992364      2.824780      3.012326    -0.603267   -0.542835   -0.602217
 Energy
        -27.554691945400
 PlusStress:  xx          yy          zz          yz          xz          xy
         0.24122     0.93836     0.16216     0.58146     0.63532     0.58384
 Feature   EFS_by	Qe
 Feature   mindist	2.962775
END_CFG

BEGIN_CFG
 Size
    1
 Supercell
         2.657284      2.657284      2.657284
        -2.657284      2.657289      2.657289
        -2.657289     -2.657289      2.657289
 AtomData:  id type       cartes_x      cartes_y      cartes_z           fx          fy          fz
             1    0       0.000000      0.000000      0.000000     0.000000    0.000000    0.000000
 Energy
        -13.978667235300
 PlusStress:  xx          yy          zz          yz          xz          xy
        -0.17118    -0.17111    -0.17118    -0.00000    -0.00000    -0.00007
 Feature   EFS_by	Qe
 Feature   mindist	4.602552
END_CFG

BEGIN_CFG
 Size
    2
 Supercell
         4.650246      0.000000      0.000000
         0.000000      4.650246      0.000000
         0.000000      0.000000      4.650250
 AtomData:  id type       cartes_x      cartes_y      cartes_z           fx          fy          fz
             1    0       0.000000      0.000000      0.000000     0.000000    0.000000    0.000000
             2    0       2.325123      2.325124      2.325139     0.000000    0.000000    0.000000
 Energy
        -27.828748970700
 PlusStress:  xx          yy          zz          yz          xz          xy
         1.20842     1.20842     1.20842     0.00000     0.00000     0.00000
 Feature   EFS_by	Qe
 Feature   mindist	4.027223
END_CFG

BEGIN_CFG
 Size
    2
 Supercell
         5.161258      0.000000      0.000000
         0.000000      5.161258      0.000000
         0.000000      0.000000      5.161258
 AtomData:  id type       cartes_x      cartes_y      cartes_z           fx          fy          fz
             1    0      -0.132461      0.001532      0.110331     0.101397   -0.001163   -0.085698
             2    0       2.713090      2.579097      2.470298    -0.101397    0.001163    0.085698
 Energy
        -28.090770264000
 PlusStress:  xx          yy          zz          yz          xz          xy
        -0.33718    -0.28428    -0.32165     0.00050    -0.04065    -0.00063
 Feature   EFS_by	Qe
 Feature   mindist	4.192348
END_CFG

BEGIN_CFG
 Size
    1
 Supercell
         2.555084      2.555089      2.555093