BEGIN_CFG
 Size
    4
 Supercell
         5.161258      0.000000      0.000000
         0.000000      5.161258      0.000000
         0.000000      0.000000     10.322516
 AtomData:  id type       cartes_x      cartes_y      cartes_z           fx          fy          fz
             1    0       3.111442      2.112093      3.909260    -0.073241    0.087557   -0.240110
             2    0       0.296457      4.954022      5.554592     0.030193    0.014976   -0.641030
             3    0       4.813874      0.176540      8.578306    -0.288341    0.362803    0.804522
             4    0       2.100743      3.079861      7.764133     0.331389   -0.465335    0.076619
 Energy
        -55.104982993400
 PlusStress:  xx          yy          zz          yz          xz          xy
         1.56280     1.35350     1.87688    -0.05428    -0.04645    -0.47844
 Feature   EFS_by	Qe
 Feature   mindist	3.115231
END_CFG

BEGIN_CFG
 Size
    4
 Supercell
         4.854649      0.000000      0.000000
         0.000000      4.854649      0.000000
         0.000000      0.000000      9.709298
 AtomData:  id type       cartes_x      cartes_y      cartes_z           fx          fy          fz
             1    0       2.228369      1.841518      2.016870     0.057183    0.202755    0.215630
             2    0       0.381229      0.348379      5.281229    -0.175116   -0.049861   -0.226782
             3    0       4.648963      4.704603      9.558386     0.073671    0.023296    0.053635
             4    0       2.450736      2.814797      7.416758     0.044262   -0.176190   -0.042482
 Energy
        -55.980000077600
 PlusStress:  xx          yy          zz          yz          xz          xy
         0.88409     0.51138     0.95783     0.25548     0.14140     0.11765
 Feature   EFS_by	Qe
 Feature   mindist	3.604183
END_CFG

BEGIN_CFG
 Size
    2
 Supercell
         4.854649      0.000000      0.000000
         0.000000      4.854649      0.000000
         0.000000      0.000000      4.854649
 AtomData:  id type       cartes_x      cartes_y      cartes_z           fx          fy          fz
             1    0       4.558269      0.015905      0.037509     0.294958   -0.019651   -0.046208
             2    0       2.723704      2.411420      2.389816    -0.294958    0.019651    0.046208
 Energy
        -28.039633947100
 PlusStress:  xx          yy          zz          yz          xz          xy
         0.01513     0.45560     0.44877     0.00210    -0.03246    -0.01376
 Feature   EFS_by	Qe
 Feature   mindist	3.825895
END_CFG

BEGIN_CFG
 Size
    2
 Supercell
         5.263461      0.000000      0.000000
         0.000000      5.263461      0.000000
         0.000000      0.000000      5.263461
 AtomData:  id type       cartes_x      cartes_y      cartes_z           fx          fy          fz
             1    0       0.163805      0.159779      0.404226    -0.147927   -0.144826   -0.260416
             2    0       2.467926      2.471952      2.227504     0.147927    0.144826    0.260416
 Energy
        -27.940376743000
 PlusStress:  xx          yy          zz          yz          xz          xy
        -0.15531    -0.15075    -0.50019     0.15584     0.15932     0.08555
 Feature   EFS_by	Qe
 Feature   mindist	3.738911
END_CFG

BEGIN_CFG
 Size
    4
 Supercell
         5.263461      0.000000      0.000000
         0.000000      5.263461      0.000000
         0.000000      0.000000     10.526922
 AtomData:  id type       cartes_x      cartes_y      cartes_z           fx          fy          fz
             1    0       2.429377      2.249936      0.582462     0.053430   -0.478539    0.416056
             2    0       5.186002      4.582736      0.246122    -0.052228    0.338905    0.397382
             3    0       0.238169      4.656935      6.517618    -0.215483    0.155211   -0.661450
             4    0       2.673374      4.300777      8.444181     0.214281   -0.015576   -0.151989
 Energy
        -54.566309933100
 PlusStress:  xx          yy          zz          yz          xz          xy
         3.72200     0.22225     2.25301    -0.78296     0.43218    -0.06373
 Feature   EFS_by	Qe
 Feature   mindist	3.125495
END_CFG

BEGIN_CFG
 Size
    2
 Supercell
         5.263461      0.000000      0.000000
         0.000000      5.263461      0.000000
         0.000000      0.000000      5.263461
 AtomData:  id type       cartes_x      cartes_y      cartes_z           fx          fy          fz
             1    0       0.120607     -0.031448      3.983222    -0.204346    0.055828    0.026886
             2    0       2.511124      2.663179      3.911970     0.204346   -0.055828   -0.026886
 Energy
        -27.572767108600
 PlusStress:  xx          yy          zz          yz          xz          xy
         0.93934     1.04604    -1.21567     0.00361    -0.01312    -0.02611
 Feature   EFS_by	Qe
 Feature   mindist	3.509780
END_CFG

BEGIN_CFG
 Size
    4
 Supercell
         4.854649      0.000000      0.000000
         0.000000      4.854649      0.000000
         0.000000      0.000000      9.709298
 AtomData:  id type       cartes_x      cartes_y      cartes_z           fx          fy          fz
             1    0       2.714060      2.551724      2.752950    -0.043378   -0.043672   -0.190237
             2    0       0.389686      0.025711      4.885210    -0.157994   -0.027845    0.022185
             3    0       4.283551      0.026169      9.392097     0.231847   -0.062478    0.215982
             4    0       2.322001      2.251045      7.242986    -0.030475    0.133995   -0.047929
 Energy
        -56.061093953600
 PlusStress:  xx          yy          zz          yz          xz          xy
         0.35864     0.87211     0.70362    -0.01050     0.21871     0.00483
 Feature   EFS_by	Qe
 Feature   mindist	3.662845
END_CFG

BEGIN_CFG
 Size
    2
 Supercell
         4.854649      0.000000      0.000000
         0.000000      4.854649      0.000000
         0.000000      0.000000      4.854649
 AtomData:  id type       cartes_x      cartes_y      cartes_z           fx          fy          fz
             1    0       0.156141     -0.021781      0.084516    -0.168216    0.024975   -0.095159
             2    0       2.271183      2.449105      2.342808     0.168216   -0.024975    0.095159
 Energy
        -28.098219380900
 PlusStress:  xx          yy          zz          yz          xz          xy
         0.17690     0.30107     0.26535    -0.00609     0.04118    -0.01082
 Feature   EFS_by	Qe
 Feature   mindist	3.905843
END_CFG

BEGIN_CFG
 Size
    4
 Supercell
         4.956852      0.000000      0.000000
         0.000000      4.956852      0.000000
         0.000000      0.000000      9.913704
 AtomData:  id type       cartes_x      cartes_y      cartes_z           fx          fy          fz
             1    0       2.289882      2.689177      2.396420    -0.204701   -0.183389   -0.288279
             2    0       0.466717      0.233486      0.202448     0.063014   -0.230284    0.108535
             3    0       3.554181      4.898163      4.303849     0.350273    0.164151    0.470029
             4    0       3.602924      2.092878      7.967839    -0.208586    0.249523   -0.290285
 Energy
        -55.554984078700
 PlusStress:  xx          yy          zz          yz          xz          xy
        -0.36499     1.61966     1.14776     0.06866     1.48972     0.01029
 Feature   EFS_by	Qe
 Feature   mindist	3.180622
END_CFG

BEGIN_CFG
 Size
    2
 Supercell
         5.263461      0.000000      0.000000
         0.000000      5.263461      0.000000
         0.000000      0.000000      5.263461
 AtomData:  id type       cartes_x      cartes_y      cartes_z           fx          fy          fz
             1    0       5.214726      0.688599      0.459651     0.092876   -0.424617   -0.478299
             2    0       2.680465      1.943131      2.172079    -0.092876    0.424617    0.478299
 Energy
        -27.591354934300
 PlusStress:  xx          yy          zz          yz          xz          xy
         1.03493    -0.62176    -0.03883     0.48239    -0.10671    -0.09412
 Feature   EFS_by	Qe
 Feature   mindist	3.305864
END_CFG

BEGIN_CFG
 Size
    2
 Supercell
         5.059055      0.000000      0.000000
         0.000000      5.059055      0.000000
         0.000000      0.000000      5.059055
 AtomData:  id type       cartes_x      cartes_y      cartes_z           fx          fy          fz
             1    0       0.113387      0.106824      0.039651    -0.099225   -0.093836   -0.035792
             2    0       2.416140      2.422703      2.489876     0.099225    0.093836    0.035792
 Energy
        -28.110736890600
 PlusStress:  xx          yy          zz          yz          xz          xy
        -0.17369    -0.16846    -0.13149     0.01284     0.01355     0.03567
 Feature   EFS_by	Qe
 Feature   mindist	4.082838
END_CFG

BEGIN_CFG
 Size
    2
 Supercell
         4.854649      0.000000      0.000000
         0.000000      4.854649      0.000000
         0.000000      0.000000      4.854649
 AtomData:  id type       cartes_x      cartes_y      cartes_z           fx          fy          fz
             1    0      -0.054848      0.431628      0.366281     0.104770   -0.473371   -0.452987
             2    0       2.482173      1.995696      2.061043    -0.104770    0.473371    0.452987
 Energy
        -27.769774958300
 PlusStress:  xx          yy          zz          yz          xz          xy
         1.20512     0.08477     0.32838     0.38479    -0.09412    -0.09612
 Feature   EFS_by	Qe
 Feature   mindist	3.269546
END_CFG

BEGIN_CFG
 Size
    4
 Supercell
         5.365664      0.000000      0.000000
         0.000000      5.365664      0.000000
         0.000000      0.000000     10.731328
 AtomData:  id type       cartes_x      cartes_y      cartes_z           fx          fy          fz
             1    0       4.617844      0.507334      2.509316     0.277475   -0.146086    0.517138
             2    0       3.284225      0.948850     10.498671    -0.293254    0.043294   -0.511887
             3    0       2.730778      3.280750      7.616430    -0.042910    0.109091   -0.064027
             4    0       0.098483      0.628730      6.203903     0.058690   -0.006298    0.058776
 Energy
        -55.132552617300
 PlusStress:  xx          yy          zz          yz          xz          xy
        -0.81868    -0.68592     1.80983    -0.56394     1.45014    -0.18808
 Feature   EFS_by	Qe
 Feature   mindist	3.080891
END_CFG

BEGIN_CFG
 Size
    2
 Supercell
         4.854649      0.000000      0.000000
         0.000000      4.854649      0.000000
         0.000000      0.000000      4.854649
 AtomData:  id type       cartes_x      cartes_y      cartes_z           fx          fy          fz
             1    0       4.654831      0.054746      0.186470     0.221129   -0.066483   -0.209006
             2    0       2.627142      2.372578      2.240854    -0.221129    0.066483    0.209006
 Energy
        -28.047350551900
 PlusStress:  xx          yy          zz          yz          xz          xy
         0.21819     0.41904     0.24434     0.03288    -0.11104    -0.03488
 Feature   EFS_by	Qe
 Feature   mindist	3.701941
END_CFG

BEGIN_CFG
 Size
    2
 Supercell
         5.365664      0.000000      0.000000
         0.000000      5.365664      0.000000
         0.000000      0.000000      5.365664
 AtomData:  id type       cartes_x      cartes_y      cartes_z           fx          fy          fz
             1    0       0.211338      5.167117      5.146895    -0.141252    0.134441    0.144881
             2    0       2.471495      2.881380      2.901601     0.141252   -0.134441   -0.144881
 Energy
        -27.973798719700
 PlusStress:  xx          yy          zz          yz          xz          xy
        -0.48536    -0.47388    -0.49231     0.11049    -0.11616    -0.10765
 Feature   EFS_by	Qe
 Feature   mindist	3.921001
END_CFG

BEGIN_CFG
 Size
    2
 Supercell
         5.365664      0.000000      0.000000
         0.000000      5.365664      0.000000
         0.000000      0.000000      5.365664
 AtomData:  id type       cartes_x      cartes_y      cartes_z           fx          fy          fz
             1    0       0.470281      0.114879      5.214457    -0.246352   -0.099959    0.128132
             2    0       2.212551      2.567953      2.834039     0.246352    0.099959   -0.128132
 Energy
        -27.908246082600
 PlusStress:  xx          yy          zz          yz          xz          xy
        -0.64422    -0.21985    -0.25048    -0.05886    -0.15162     0.11801
 Feature   EFS_by	Qe
 Feature   mindist	3.836595
END_CFG

BEGIN_CFG
 Size
    2
 Supercell
         5.161258      0.000000      0.000000
         0.000000      5.161258      0.000000
         0.000000      0.000000      5.161258
 AtomData:  id type       cartes_x      cartes_y      cartes_z           fx          fy          fz
             1    0       0.398530      0.346978      4.959449    -0.350143   -0.333490    0.237142
             2    0       2.182099      2.233651      2.782438     0.350143    0.333490   -0.237142
 Energy
        -27.840806335900
 PlusStress:  xx          yy          zz          yz          xz          xy
        -0.20160    -0.08092     0.24048    -0.22546    -0.23783     0.33768
 Feature   EFS_by	Qe
 Feature   mindist	3.388219
END_CFG

BEGIN_CFG
 Size
    4
 Supercell
         5.161258      0.000000      0.000000
         0.000000      5.161258      0.000000
         0.000000      0.000000     10.322516
 AtomData:  id type       cartes_x      cartes_y      cartes_z           fx          fy          fz
             1    0       1.821946      2.836606      3.683433     0.368513   -0.033670   -0.616932
             2    0       0.134160      0.150115      5.074505    -0.393509   -0.087150    0.192641
             3    0       0.347553      5.180538      9.875340    -0.029186   -0.065447    0.116990
             4    0       2.857598      2.155258      7.173013     0.054182    0.186267    0.307301
 Energy
        -55.589418591100
 PlusStress:  xx          yy          zz          yz          xz          xy
        -0.02045     0.69480     0.35674     0.02499    -0.30549    -0.19440
 Feature   EFS_by	Qe
 Feature   mindist	3.302752
END_CFG

BEGIN_CFG
 Size
    4
 Supercell
         4.854649      0.000000      0.000000
         0.000000      4.854649      0.000000
         0.000000      0.000000      9.709298
 AtomData:  id type       cartes_x      cartes_y      cartes_z           fx          fy          fz
             1    0       2.121304      2.727787      2.049095     0.565854   -0.412976    0.621937
             2    0       4.578840      0.644630      4.340988    -0.028850   -0.128842    0.219889
             3    0       0.668150      4.323245      0.391339    -0.740714    0.564810   -0.489872
             4    0       2.341003      2.013635      7.782524     0.203710   -0.022993   -0.351953
 Energy
        -55.403948096900
 PlusStress:  xx          yy          zz          yz          xz          xy
         0.65088     1.13158     1.86314    -0.53029     0.16535    -0.59247
 Feature   EFS_by	Qe
 Feature   mindist	2.721267
END_CFG

BEGIN_CFG
 Size
    4
 Supercell
         5.161258      0.000000      0.000000
         0.000000      5.161258      0.000000
         0.000000      0.000000     10.322516
 AtomData:  id type       cartes_x      cartes_y      cartes_z           fx          fy          fz
             1    0       2.917500      0.239274      3.477581    -0.064976   -0.016574   -0.454841
             2    0       4.715777      5.164350      6.759034     0.333113   -0.091274   -0.127874
             3    0       0.134510      2.232026      9.195173     0.111446    0.095641    0.740386
             4    0       2.554730      2.686866      6.374502    -0.379584    0.012208   -0.157672
 Energy
        -55.084499350400
 PlusStress:  xx          yy          zz          yz          xz          xy
         0.65466     1.94732     2.00564     0.18683     0.60795     0.14921
 Feature   EFS_by	Qe
 Feature   mindist	3.309972
END_CFG

BEGIN_CFG
 Size
    2
 Supercell
         4.854649      0.000000      0.000000
         0.000000      4.854649      0.000000
         0.000000      0.000000      4.854649
 AtomData:  id type       cartes_x      cartes_y      cartes_z           fx          fy          fz
             1    0       0.440409      0.454830      4.577902    -0.649367   -0.650078    0.568500
             2    0       1.986915      1.972494      2.704071     0.649367    0.650078   -0.568500
 Energy
        -27.507722644100
 PlusStress:  xx          yy          zz          yz          xz          xy
         0.50329     0.43312     1.30985    -0.54499    -0.54625     0.60161
 Feature   EFS_by	Qe
 Feature   mindist	2.864651
END_CFG

BEGIN_CFG
 Size
    4
 Supercell
         4.854649      0.000000      0.000000
         0.000000      4.854649      0.000000
         0.000000      0.000000      9.709298
 AtomData:  id type       cartes_x      cartes_y      cartes_z           fx          fy          fz
             1    0       2.395455      2.574615      3.007091     0.029867   -0.109405   -0.425425
             2    0       4.879252     -0.070365      4.708056    -0.029953    0.092902    0.238117
             3    0      -0.014004      4.925724      9.168924     0.015318   -0.098011    0.403634
             4    0       2.448595      2.279323      7.389172    -0.015231    0.114514   -0.216327
 Energy
        -55.955697316600
 PlusStress:  xx          yy          zz          yz          xz          xy
         1.19966     1.07129     0.18615     0.00672    -0.01071    -0.01471
 Feature   EFS_by	Qe
 Feature   mindist	3.660172
END_CFG

BEGIN_CFG
 Size
    2
 Supercell
         5.365664      0.000000      0.000000
         0.000000      5.365664      0.000000
         0.000000      0.000000      5.365664
 AtomData:  id type       cartes_x      cartes_y      cartes_z           fx          fy          fz
             1    0       0.216576      5.148369      4.998325    -0.170747    0.171064    0.232394
             2    0       2.466256      2.900128      3.050171     0.170747   -0.171064   -0.232394
 Energy
        -27.910087885300
 PlusStress:  xx          yy          zz          yz          xz          xy
        -0.32254    -0.32325    -0.51628     0.19006    -0.18949    -0.13716
 Feature   EFS_by	Qe
 Feature   mindist	3.729739
END_CFG

BEGIN_CFG
 Size
    4
 Supercell
         4.956852      0.000000      0.000000
         0.000000      4.956852      0.000000
         0.000000      0.000000      9.913704
 AtomData:  id type       cartes_x      cartes_y      cartes_z           fx          fy          fz
             1    0       3.547036      2.656870      1.755164    -0.222372   -0.156443    0.351818
             2    0       0.036964      4.645020      9.301065     0.054490   -0.011925    0.502267
             3    0       4.465561      0.469159      6.213534    -0.248600   -0.358185   -0.990339
             4    0       1.864142      2.142654      7.514496     0.416482    0.526552    0.136253
 Energy
        -55.112657012400
 PlusStress:  xx          yy          zz          yz          xz          xy
         1.56911     1.51298     2.12242    -0.30461    -0.35761     0.24847
 Feature   EFS_by	Qe
 Feature   mindist	3.168778
END_CFG

BEGIN_CFG
 Size
    2
 Supercell
         5.263461      0.000000      0.000000
         0.000000      5.263461      0.000000
         0.000000      0.000000      5.263461
 AtomData:  id type       cartes_x      cartes_y      cartes_z           fx          fy          fz
             1    0       0.177096      0.167580      5.069811    -0.130629   -0.124704    0.140392
             2    0       2.454635      2.464151      2.825380     0.130629    0.124704   -0.140392
 Energy
        -28.020684482100
 PlusStress:  xx          yy          zz          yz          xz          xy
        -0.38505    -0.37662    -0.40085    -0.08716    -0.09144     0.08087
 Feature   EFS_by	Qe
 Feature   mindist	3.936863
END_CFG

BEGIN_CFG
 Size
    4
 Supercell
         5.059055      0.000000      0.000000
         0.000000      5.059055      0.000000
         0.000000      0.000000     10.118110
 AtomData:  id type       cartes_x      cartes_y      cartes_z           fx          fy          fz
             1    0       4.771138      0.163227      9.946245     0.137750   -0.155425    0.023020
             2    0       2.174610      2.036462      2.164316     0.071632    0.209556    0.170886
             3    0       0.319286      0.150760      5.462015    -0.047769   -0.048947   -0.141094
             4    0       2.853076      2.708606      7.722698    -0.161613   -0.005184   -0.052812
 Energy
        -56.046761172400
 PlusStress:  xx          yy          zz          yz          xz          xy
        -0.15384    -0.12863     0.13220     0.13172     0.12245     0.07751
 Feature   EFS_by	Qe
 Feature   mindist	3.865449
END_CFG

BEGIN_CFG
 Size
    2
 Supercell
         4.854649      0.000000      0.000000
         0.000000      4.854649      0.000000
         0.000000      0.000000      4.854649
 AtomData:  id type       cartes_x      cartes_y      cartes_z           fx          fy          fz
             1    0       4.790441      0.961405      4.749368     0.153552   -0.275567    0.238112
             2    0       2.491532      1.465920      2.532605    -0.153552    0.275567   -0.238112
 Energy
        -27.506408470200
 PlusStress:  xx          yy          zz          yz          xz          xy
         1.91567    -1.25512     1.83594    -0.09654     0.08730    -0.06250
 Feature   EFS_by	Qe
 Feature   mindist	3.233196
END_CFG

BEGIN_CFG
 Size
    2
 Supercell
         5.263461      0.000000      0.000000
         0.000000      5.263461      0.000000
         0.000000      0.000000      5.263461
 AtomData:  id type       cartes_x      cartes_y      cartes_z           fx          fy          fz
             1    0       5.024451      0.167007      4.985582     0.185490   -0.139799    0.204716
             2    0       2.870741      2.464724      2.909609    -0.185490    0.139799   -0.204716
 Energy
        -27.972318828500
 PlusStress:  xx          yy          zz          yz          xz          xy
        -0.32936    -0.24488    -0.38077    -0.12585     0.16816    -0.11340
 Feature   EFS_by	Qe
 Feature   mindist	3.771953
END_CFG

BEGIN_CFG
 Size
    2
 Supercell
         5.161258      0.000000      0.000000
         0.000000      5.161258      0.000000
         0.000000      0.000000      5.161258
 AtomData:  id type       cartes_x      cartes_y      cartes_z           fx          fy          fz
             1    0       0.261106      4.974828      4.905957    -0.224001    0.174175    0.220678
             2    0       2.319523      2.767059      2.835930     0.224001   -0.174175   -0.220678
 Energy
        -27.976075768500
 PlusStress:  xx          yy          zz          yz          xz          xy
        -0.20703    -0.09367    -0.19756     0.13798    -0.17913    -0.14012
 Feature   EFS_by	Qe
 Feature   mindist	3.660101
END_CFG

BEGIN_CFG
 Size
    2
 Supercell
         5.365664      0.000000      0.000000
         0.000000      5.365664      0.000000
         0.000000      0.000000      5.365664
 AtomData:  id type       cartes_x      cartes_y      cartes_z           fx          fy          fz
             1    0       4.614695      5.231535      5.011073     0.349707    0.202020    0.396633
             2    0       3.433802      2.816961      3.037423    -0.349707   -0.202020   -0.396633
 Energy
        -27.630565997300
 PlusStress:  xx          yy          zz          yz          xz          xy
        -0.76010     0.61330     0.08737     0.22169     0.39530     0.19999
 Feature   EFS_by	Qe
 Feature   mindist	3.334661
END_CFG

BEGIN_CFG
 Size
    2
 Supercell
         4.956852      0.000000      0.000000
         0.000000      4.956852      0.000000
         0.000000      0.000000      4.956852
 AtomData:  id type       cartes_x      cartes_y      cartes_z           fx          fy          fz
             1    0       0.144475      0.318417      0.003036    -0.160354   -0.289601   -0.003557
             2    0       2.333951      2.160009      2.475390     0.160354    0.289601    0.003557
 Energy
        -28.022087637200
 PlusStress:  xx          yy          zz          yz          xz          xy
         0.20732    -0.13173     0.31657     0.00280     0.00145     0.12726
 Feature   EFS_by	Qe
 Feature   mindist	3.781244
END_CFG

BEGIN_CFG
 Size
    2
 Supercell
         4.956852      0.000000      0.000000
         0.000000      4.956852      0.000000
         0.000000      0.000000      4.956852
 AtomData:  id type       cartes_x      cartes_y      cartes_z           fx          fy          fz
             1    0       0.219281      4.810533      4.756024    -0.224944    0.160557    0.210054
             2    0       2.259145      2.624744      2.679254     0.224944   -0.160557   -0.210054
 Energy
        -28.028361902500
 PlusStress:  xx          yy          zz          yz          xz          xy
         0.06575     0.18954     0.10019     0.09181    -0.12983    -0.09863
 Feature   EFS_by	Qe
 Feature   mindist	3.640288
END_CFG

BEGIN_CFG
 Size
    2
 Supercell
         4.854649      0.000000      0.000000
         0.000000      4.854649      0.000000
         0.000000      0.000000      4.854649
 AtomData:  id type       cartes_x      cartes_y      cartes_z           fx          fy          fz
             1    0      -0.110689      0.484888      0.375255     0.242320   -0.534795   -0.516022
             2    0       2.538013      1.942436      2.052070    -0.242320    0.534795    0.516022
 Energy
        -27.688475092100
 PlusStress:  xx          yy          zz          yz          xz          xy
         1.40272     0.02332     0.47125     0.45749    -0.23520    -0.23279
 Feature   EFS_by	Qe
 Feature   mindist	3.130871
END_CFG

BEGIN_CFG
 Size
    1
 Supercell
         2.555084      2.555089      2.555093
        -2.555102      2.555106      2.555111
        -2.555115     -2.555120      2.555129
 AtomData:  id type       cartes_x      cartes_y      cartes_z           fx          fy          fz
             1    0       0.000000      0.000000      0.000000     0.000000    0.000000    0.000000
 Energy
        -13.988890825100
 PlusStress:  xx          yy          zz          yz          xz          xy
         0.00447     0.00453     0.00447     0.00000     0.00000     0.00000
 Feature   EFS_by	Qe
 Feature   mindist	4.425543
END_CFG

BEGIN_CFG
 Size
    2
 Supercell
         5.416770      0.000000      0.000000
         0.000000      5.416770      0.000000
         0.000000      0.000000      5.416775
 AtomData:  id type       cartes_x      cartes_y      cartes_z           fx          fy          fz
             1    0       0.000000      0.000000      0.000000     0.000000    0.000000    0.000000
             2    0       2.708385      2.708386      2.708403     0.000000    0.000000    0.000000
 Energy
        -27.940525045000
 PlusStress:  xx          yy          zz          yz          xz          xy
        -0.49163    -0.49163    -0.49163     0.00000     0.00000     0.00000
 Feature   EFS_by	Qe
 Feature   mindist	4.691052
END_CFG

BEGIN_CFG
 Size
    2
 Supercell
         5.263461      0.000000      0.000000
         0.000000      5.263461      0.000000
         0.000000      0.000000      5.263461
 AtomData:  id type       cartes_x      cartes_y      cartes_z           fx          fy          fz
             1    0      -0.116373      0.687485      5.082181     0.148241   -0.322855    0.219185
             2    0       2.748103      1.944246      2.813011    -0.148241    0.322855   -0.219185
 Energy
        -27.775559418700
 PlusStress:  xx          yy          zz          yz          xz          xy
         0.36269    -0.74868     0.26282    -0.21877     0.09412    -0.14754
 Feature   EFS_by	Qe
 Feature   mindist	3.533230
END_CFG

BEGIN_CFG
 Size
    1
 Supercell
         2.427325      2.427325      2.427325
        -2.427329      2.427329      2.427329
        -2.427329     -2.427329      2.427329
 AtomData:  id type       cartes_x      cartes_y      cartes_z           fx          fy          fz
             1    0       0.000000      0.000000      0.000000     0.000000    0.000000    0.000000
 Energy
        -13.966802118600
 PlusStress:  xx          yy          zz          yz          xz          xy
         0.29598     0.29608     0.29603     0.00005     0.00000    -0.00000
 Feature   EFS_by	Qe
 Feature   mindist	4.204251
END_CFG

BEGIN_CFG
 Size
    2
 Supercell
         4.854649      0.000000      0.000000
         0.000000      4.854649      0.000000
         0.000000      0.000000      4.854649
 AtomData:  id type       cartes_x      cartes_y      cartes_z           fx          fy          fz
             1    0       4.520422      4.608575      4.441558     0.502450    0.434765    0.532759
             2    0       2.761551      2.673398      2.840415    -0.502450   -0.434765   -0.532759
 Energy
        -27.713018537800
 PlusStress:  xx          yy          zz          yz          xz          xy
         0.62252     0.96918     0.29844     0.40643     0.45801     0.39330
 Feature   EFS_by	Qe
 Feature   mindist	3.066300
END_CFG

BEGIN_CFG
 Size
    4
 Supercell
         5.365664      0.000000      0.000000
         0.000000      5.365664      0.000000
         0.000000      0.000000     10.731328
 AtomData:  id type       cartes_x      cartes_y      cartes_z           fx          fy          fz
             1    0       5.092273      5.387391     10.288250     0.001916    0.018440    0.101787
             2    0       2.129520      2.277801      2.468734     0.070019    0.076572    0.034221
             3    0       0.784729      0.030921      6.202101    -0.286640    0.135695   -0.325951