BEGIN_CFG
 Size
    2
 Supercell
         2.379879      2.379879      2.379879
        -2.379879      2.379879      2.379879
        -2.379879     -2.379879      2.379879
 AtomData:  id type       cartes_x      cartes_y      cartes_z           fx          fy          fz
             1    0       0.000000      0.000000      0.000000     0.170984   -0.170984    0.008210
             2    0      -0.785361      0.785361      2.356082    -0.170984    0.170984   -0.008210
 Energy
        -25.806188961600
 PlusStress:  xx          yy          zz          yz          xz          xy
         2.55838     2.55838     2.42858    -0.01337     0.01337     0.17084
 Feature   EFS_by	Qe
 Feature   mindist	2.255115
END_CFG

BEGIN_CFG
 Size
    2
 Supercell
         2.738140      2.738140      2.738140
        -2.738140      2.738140      2.738140
        -2.738140     -2.738140      2.738140
 AtomData:  id type       cartes_x      cartes_y      cartes_z           fx          fy          fz
             1    0       0.000000      0.000000      0.000000    -0.132546    0.132546   -0.015511
             2    0      -0.903587      0.903587      2.710760     0.132546   -0.132546    0.015511
 Energy
        -26.661197105500
 PlusStress:  xx          yy          zz          yz          xz          xy
         1.06322     1.06322     2.44650     0.03921    -0.03921    -1.09798
 Feature   EFS_by	Qe
 Feature   mindist	2.594595
END_CFG

BEGIN_CFG
 Size
    2
 Supercell
         2.840501      2.840501      2.840501
        -2.840501      2.840501      2.840501
        -2.840501     -2.840501      2.840501
 AtomData:  id type       cartes_x      cartes_y      cartes_z           fx          fy          fz
             1    0       0.000000      0.000000      0.000000    -0.191959    0.191959   -0.019871
             2    0      -0.937366      0.937366      2.812098     0.191959   -0.191959    0.019871
 Energy
        -26.815334232900
 PlusStress:  xx          yy          zz          yz          xz          xy
         0.80063     0.80063     2.23608     0.04873    -0.04873    -1.30036
 Feature   EFS_by	Qe
 Feature   mindist	2.691589
END_CFG

BEGIN_CFG
 Size
    1
 Supercell
         2.559015      3.838516      3.838516
        -2.559015      2.559015      2.559015
        -2.559015     -2.559015      2.559015
 AtomData:  id type       cartes_x      cartes_y      cartes_z           fx          fy          fz
             1    0       0.000000      0.000000      0.000000     0.000000    0.000000    0.000000
 Energy
        -13.908314101500
 PlusStress:  xx          yy          zz          yz          xz          xy
        -0.27665    -0.23241    -0.20710    -0.07301    -0.20025    -0.02008
 Feature   EFS_by	Qe
 Feature   mindist	4.432343
END_CFG

BEGIN_CFG
 Size
    1
 Supercell
         2.431059      2.431059      2.431059
        -2.431059      2.431059      2.431059
        -2.431059     -2.431059      2.431059
 AtomData:  id type       cartes_x      cartes_y      cartes_z           fx          fy          fz
             1    0       0.000000      0.000000      0.000000     0.000000    0.000000    0.000000
 Energy
        -13.968138333700
 PlusStress:  xx          yy          zz          yz          xz          xy
         0.28621     0.28621     0.28621     0.00000     0.00000    -0.00000
 Feature   EFS_by	Qe
 Feature   mindist	4.210718
END_CFG

BEGIN_CFG
 Size
    1
 Supercell
         2.175158      2.175158      2.175158
        -2.175158      2.175158      2.175158
        -2.175158     -2.175158      2.175158
 AtomData:  id type       cartes_x      cartes_y      cartes_z           fx          fy          fz
             1    0       0.000000      0.000000      0.000000     0.000000    0.000000    0.000000
 Energy
        -13.728188467800
 PlusStress:  xx          yy          zz          yz          xz          xy
         1.24036     1.24036     1.24036     0.00000     0.00000    -0.00000
 Feature   EFS_by	Qe
 Feature   mindist	3.767485
END_CFG

BEGIN_CFG
 Size
    1
 Supercell
         2.559015      5.885724      5.885724
        -2.559015      2.559015      2.559015
        -2.559015     -2.559015      2.559015
 AtomData:  id type       cartes_x      cartes_y      cartes_z           fx          fy          fz
             1    0       0.000000      0.000000      0.000000     0.000000    0.000000    0.000000
 Energy
        -13.768397236300
 PlusStress:  xx          yy          zz          yz          xz          xy
        -0.21072    -0.23966    -0.20310     0.00000    -0.21498    -0.00823
 Feature   EFS_by	Qe
 Feature   mindist	4.432344
END_CFG

BEGIN_CFG
 Size
    1
 Supercell
         2.559014      6.141626      6.141626
        -2.559014      2.559014      2.559014
        -2.559014     -2.559014      2.559014
 AtomData:  id type       cartes_x      cartes_y      cartes_z           fx          fy          fz
             1    0       0.000000      0.000000      0.000000     0.000000    0.000000    0.000000
 Energy
        -13.756204358400
 PlusStress:  xx          yy          zz          yz          xz          xy
        -0.18425    -0.24420    -0.18372    -0.00178    -0.19461    -0.00806
 Feature   EFS_by	Qe
 Feature   mindist	4.432342
END_CFG

BEGIN_CFG
 Size
    1
 Supercell
         2.559011      5.629824      5.629824
        -2.559011      2.559011      2.559011
        -2.559011     -2.559019      2.559019
 AtomData:  id type       cartes_x      cartes_y      cartes_z           fx          fy          fz
             1    0       0.000000      0.000000      0.000000     0.000000    0.000000    0.000000
 Energy
        -13.782024154200
 PlusStress:  xx          yy          zz          yz          xz          xy
        -0.23515    -0.23535    -0.21881     0.00217    -0.23318    -0.00660
 Feature   EFS_by	Qe
 Feature   mindist	4.432337
END_CFG

BEGIN_CFG
 Size
    1
 Supercell
         2.840501      2.840501      2.840501
        -2.840501      2.840501      2.840501
        -2.840501     -2.840501      2.840501
 AtomData:  id type       cartes_x      cartes_y      cartes_z           fx          fy          fz
             1    0       0.000000      0.000000      0.000000     0.000000    0.000000    0.000000
 Energy
        -13.920482489100
 PlusStress:  xx          yy          zz          yz          xz          xy
        -0.39476    -0.39476    -0.39476     0.00000    -0.00000     0.00000
 Feature   EFS_by	Qe
 Feature   mindist	4.919892
END_CFG

BEGIN_CFG
 Size
    1
 Supercell
         2.482239      2.482239      2.482239
        -2.482239      2.482239      2.482239
        -2.482239     -2.482239      2.482239
 AtomData:  id type       cartes_x      cartes_y      cartes_z           fx          fy          fz
             1    0       0.000000      0.000000      0.000000     0.000000    0.000000    0.000000
 Energy
        -13.981971650000
 PlusStress:  xx          yy          zz          yz          xz          xy
         0.15952     0.15952     0.15952     0.00000     0.00000    -0.00000
 Feature   EFS_by	Qe
 Feature   mindist	4.299365
END_CFG

BEGIN_CFG
 Size
    1
 Supercell
         2.559014      7.677031      7.677031
        -2.559014      2.559014      2.559014
        -2.559014     -2.559014      2.559014
 AtomData:  id type       cartes_x      cartes_y      cartes_z           fx          fy          fz
             1    0       0.000000      0.000000      0.000000     0.000000    0.000000    0.000000
 Energy
        -13.713043698800
 PlusStress:  xx          yy          zz          yz          xz          xy
        -0.05453    -0.28163    -0.05453     0.00000    -0.08838     0.00000
 Feature   EFS_by	Qe
 Feature   mindist	4.432342
END_CFG

BEGIN_CFG
 Size
    2
 Supercell
         2.686960      2.686960      2.686960
        -2.686960      2.686960      2.686960
        -2.686960     -2.686960      2.686960
 AtomData:  id type       cartes_x      cartes_y      cartes_z           fx          fy          fz
             1    0       0.000000      0.000000      0.000000    -0.098471    0.098471   -0.012881
             2    0      -0.886697      0.886697      2.660092     0.098471   -0.098471    0.012881
 Energy
        -26.571157078200
 PlusStress:  xx          yy          zz          yz          xz          xy
         1.22144     1.22144     2.52781     0.03327    -0.03327    -0.96731
 Feature   EFS_by	Qe
 Feature   mindist	2.546098
END_CFG

BEGIN_CFG
 Size
    1
 Supercell
         2.559008      6.909333      6.909333
        -2.559018      2.559018      2.559018
        -2.559018     -2.559018      2.559018
 AtomData:  id type       cartes_x      cartes_y      cartes_z           fx          fy          fz
             1    0       0.000000      0.000000      0.000000     0.000000    0.000000    0.000000
 Energy
        -13.728637183600
 PlusStress:  xx          yy          zz          yz          xz          xy
        -0.11101    -0.26427    -0.11500    -0.00239    -0.13663    -0.00399
 Feature   EFS_by	Qe
 Feature   mindist	4.432350
END_CFG

BEGIN_CFG
 Size
    2
 Supercell
         2.328699      2.328699      2.328699
        -2.328699      2.328699      2.328699
        -2.328699     -2.328699      2.328699
 AtomData:  id type       cartes_x      cartes_y      cartes_z           fx          fy          fz
             1    0       0.000000      0.000000      0.000000     0.227245   -0.227245    0.013049
             2    0      -0.768471      0.768471      2.305413    -0.227245    0.227245   -0.013049
 Energy
        -25.639046968600
 PlusStress:  xx          yy          zz          yz          xz          xy
         2.77789     2.77789     2.26749    -0.02231     0.02231     0.38378
 Feature   EFS_by	Qe
 Feature   mindist	2.206618
END_CFG

BEGIN_CFG
 Size
    1
 Supercell
         2.559011      3.070815      3.070815
        -2.559011      2.559016      2.559016
        -2.559016     -2.559016      2.559016
 AtomData:  id type       cartes_x      cartes_y      cartes_z           fx          fy          fz
             1    0       0.000000      0.000000      0.000000     0.000000    0.000000    0.000000
 Energy
        -13.970013606400
 PlusStress:  xx          yy          zz          yz          xz          xy
        -0.13730    -0.15124    -0.11854    -0.08828    -0.10311    -0.07007
 Feature   EFS_by	Qe
 Feature   mindist	4.432342
END_CFG

BEGIN_CFG
 Size
    1
 Supercell
         2.559008      5.118025      5.118025
        -2.559016      2.559016      2.559016
        -2.559016     -2.559016      2.559016
 AtomData:  id type       cartes_x      cartes_y      cartes_z           fx          fy          fz
             1    0       0.000000      0.000000      0.000000     0.000000    0.000000    0.000000
 Energy
        -13.813416433600
 PlusStress:  xx          yy          zz          yz          xz          xy
        -0.28175    -0.23329    -0.24594     0.00000    -0.26024     0.00000
 Feature   EFS_by	Qe
 Feature   mindist	4.432346
END_CFG

BEGIN_CFG
 Size
    1
 Supercell
         2.584600      2.584600      2.584600
        -2.584600      2.584600      2.584600
        -2.584600     -2.584600      2.584600
 AtomData:  id type       cartes_x      cartes_y      cartes_z           fx          fy          fz
             1    0       0.000000      0.000000      0.000000     0.000000    0.000000    0.000000
 Energy
        -13.988068769200
 PlusStress:  xx          yy          zz          yz          xz          xy
        -0.05079    -0.05079    -0.05079     0.00000    -0.00000    -0.00000
 Feature   EFS_by	Qe
 Feature   mindist	4.476658
END_CFG

BEGIN_CFG
 Size
    2
 Supercell
         2.226339      2.226339      2.226339
        -2.226339      2.226339      2.226339
        -2.226339     -2.226339      2.226339
 AtomData:  id type       cartes_x      cartes_y      cartes_z           fx          fy          fz
             1    0       0.000000      0.000000      0.000000     0.341527   -0.341527    0.024638
             2    0      -0.734692      0.734692      2.204076    -0.341527    0.341527   -0.024638
 Energy
        -25.279579797200
 PlusStress:  xx          yy          zz          yz          xz          xy
         3.15528     3.15528     1.76550    -0.03964     0.03964     0.83333
 Feature   EFS_by	Qe
 Feature   mindist	2.109624
END_CFG

BEGIN_CFG
 Size
    2
 Supercell
         2.942861      2.942861      2.942861
        -2.942861      2.942861      2.942861
        -2.942861     -2.942861      2.942861
 AtomData:  id type       cartes_x      cartes_y      cartes_z           fx          fy          fz
             1    0       0.000000      0.000000      0.000000    -0.239243    0.239243   -0.022641
             2    0      -0.971145      0.971145      2.913434     0.239243   -0.239243    0.022641
 Energy
        -26.939007805500
 PlusStress:  xx          yy          zz          yz          xz          xy
         0.59054     0.59054     1.98231     0.05513    -0.05513    -1.42856
 Feature   EFS_by	Qe
 Feature   mindist	2.788584
END_CFG

BEGIN_CFG
 Size
    1
 Supercell
         2.533420      2.533420      2.533420
        -2.533420      2.533420      2.533420
        -2.533420     -2.533420      2.533420
 AtomData:  id type       cartes_x      cartes_y      cartes_z           fx          fy          fz
             1    0       0.000000      0.000000      0.000000     0.000000    0.000000    0.000000
 Energy
        -13.988238024000
 PlusStress:  xx          yy          zz          yz          xz          xy
         0.04771     0.04771     0.04771     0.00000     0.00000    -0.00000
 Feature   EFS_by	Qe
 Feature   mindist	4.388012
END_CFG

BEGIN_CFG
 Size
    1
 Supercell
         2.559011      4.094420      4.094420
        -2.559011      2.559011      2.559017
        -2.559017     -2.559017      2.559017
 AtomData:  id type       cartes_x      cartes_y      cartes_z           fx          fy          fz
             1    0       0.000000      0.000000      0.000000     0.000000    0.000000    0.000000
 Energy
        -13.888305297300
 PlusStress:  xx          yy          zz          yz          xz          xy
        -0.30595    -0.23747    -0.22354    -0.05161    -0.23107    -0.01104
 Feature   EFS_by	Qe
 Feature   mindist	4.432340
END_CFG

BEGIN_CFG
 Size
    1
 Supercell
         2.559012      5.373924      5.373924
        -2.559012      2.559012      2.559012
        -2.559012     -2.559012      2.559012
 AtomData:  id type       cartes_x      cartes_y      cartes_z           fx          fy          fz
             1    0       0.000000      0.000000      0.000000     0.000000    0.000000    0.000000
 Energy
        -13.797059805500
 PlusStress:  xx          yy          zz          yz          xz          xy
        -0.25976    -0.23305    -0.23467     0.00248    -0.24984    -0.00315
 Feature   EFS_by	Qe
 Feature   mindist	4.432340
END_CFG

BEGIN_CFG
 Size
    2
 Supercell
         2.686960      2.686960      2.686960
        -2.686960      2.686960      2.686960
        -2.686960     -2.686960      2.686960
 AtomData:  id type       cartes_x      cartes_y      cartes_z           fx          fy          fz
             1    0       0.000000      0.000000      0.000000    -0.098471    0.098471   -0.012881
             2    0      -0.886697      0.886697      2.660092     0.098471   -0.098471    0.012881
 Energy
        -26.571157078200
 PlusStress:  xx          yy          zz          yz          xz          xy
         1.22144     1.22144     2.52781     0.03327    -0.03327    -0.96731
 Feature   EFS_by	Qe
 Feature   mindist	2.546098
END_CFG

BEGIN_CFG
 Size
    1
 Supercell
         2.226339      2.226339      2.226339
        -2.226339      2.226339      2.226339
        -2.226339     -2.226339      2.226339
 AtomData:  id type       cartes_x      cartes_y      cartes_z           fx          fy          fz
             1    0       0.000000      0.000000      0.000000     0.000000    0.000000    0.000000
 Energy
        -13.805967180600
 PlusStress:  xx          yy          zz          yz          xz          xy
         0.99491     0.99491     0.99491    -0.00000     0.00000    -0.00000
 Feature   EFS_by	Qe
 Feature   mindist	3.856132
END_CFG

BEGIN_CFG
 Size
    1
 Supercell
         2.789321      2.789321      2.789321
        -2.789321      2.789321      2.789321
        -2.789321     -2.789321      2.789321
 AtomData:  id type       cartes_x      cartes_y      cartes_z           fx          fy          fz
             1    0       0.000000      0.000000      0.000000     0.000000    0.000000    0.000000
 Energy
        -13.940653609300
 PlusStress:  xx          yy          zz          yz          xz          xy
        -0.34224    -0.34224    -0.34224    -0.00000     0.00000     0.00000
 Feature   EFS_by	Qe
 Feature   mindist	4.831245
END_CFG

BEGIN_CFG
 Size
    2
 Supercell
         2.533420      2.533420      2.533420
        -2.533420      2.533420      2.533420
        -2.533420     -2.533420      2.533420
 AtomData:  id type       cartes_x      cartes_y      cartes_z           fx          fy          fz
             1    0       0.000000      0.000000      0.000000     0.021379   -0.021379   -0.003442
             2    0      -0.836029      0.836029      2.508087    -0.021379    0.021379    0.003442
 Energy
        -26.240568398400
 PlusStress:  xx          yy          zz          yz          xz          xy
         1.82513     1.82513     2.62648     0.01188    -0.01188    -0.46167
 Feature   EFS_by	Qe
 Feature   mindist	2.400607
END_CFG

BEGIN_CFG
 Size
    2
 Supercell
         2.482239      2.482239      2.482239
        -2.482239      2.482239      2.482239
        -2.482239     -2.482239      2.482239
 AtomData:  id type       cartes_x      cartes_y      cartes_z           fx          fy          fz
             1    0       0.000000      0.000000      0.000000     0.067745   -0.067745    0.000028
             2    0      -0.819139      0.819139      2.457418    -0.067745    0.067745   -0.000028
 Energy
        -26.107775746200
 PlusStress:  xx          yy          zz          yz          xz          xy
         2.06646     2.06646     2.59996     0.00376    -0.00376    -0.25816
 Feature   EFS_by	Qe
 Feature   mindist	2.352110
END_CFG

BEGIN_CFG
 Size
    1
 Supercell
         2.559015      6.397529      6.397529
        -2.559015      2.559015      2.559015
        -2.559015     -2.559015      2.559015
 AtomData:  id type       cartes_x      cartes_y      cartes_z           fx          fy          fz
             1    0       0.000000      0.000000      0.000000     0.000000    0.000000    0.000000
 Energy
        -13.745524433700
 PlusStress:  xx          yy          zz          yz          xz          xy
        -0.15854    -0.25031    -0.16166    -0.00258    -0.17459    -0.00711
 Feature   EFS_by	Qe
 Feature   mindist	4.432345
END_CFG

BEGIN_CFG
 Size
    2
 Supercell
         2.789321      2.789321      2.789321
        -2.789321      2.789321      2.789321
        -2.789321     -2.789321      2.789321
 AtomData:  id type       cartes_x      cartes_y      cartes_z           fx          fy          fz
             1    0       0.000000      0.000000      0.000000    -0.163612    0.163612   -0.017823
             2    0      -0.920476      0.920476      2.761429     0.163612   -0.163612    0.017823
 Energy
        -26.742370302700
 PlusStress:  xx          yy          zz          yz          xz          xy
         0.92280     0.92280     2.34708     0.04431    -0.04431    -1.20893
 Feature   EFS_by	Qe
 Feature   mindist	2.643092
END_CFG

BEGIN_CFG
 Size
    1
 Supercell
         2.635780      2.635780      2.635780
        -2.635780      2.635780      2.635780
        -2.635780     -2.635780      2.635780
 AtomData:  id type       cartes_x      cartes_y      cartes_z           fx          fy          fz
             1    0       0.000000      0.000000      0.000000     0.000000    0.000000    0.000000
 Energy
        -13.982450570400
 PlusStress:  xx          yy          zz          yz          xz          xy
        -0.13787    -0.13787    -0.13787    -0.00000     0.00000    -0.00000
 Feature   EFS_by	Qe
 Feature   mindist	4.565305
END_CFG

BEGIN_CFG
 Size
    1
 Supercell
         2.559011      2.814913      2.814913
        -2.559011      2.559016      2.559016
        -2.559016     -2.559016      2.559016
 AtomData:  id type       cartes_x      cartes_y      cartes_z           fx          fy          fz
             1    0       0.000000      0.000000      0.000000     0.000000    0.000000    0.000000
 Energy
        -13.983867195100
 PlusStress:  xx          yy          zz          yz          xz          xy
        -0.07981    -0.08711    -0.06540    -0.04614    -0.04814    -0.04485
 Feature   EFS_by	Qe
 Feature   mindist	4.432342
END_CFG

BEGIN_CFG
 Size
    1
 Supercell
         2.379879      2.379879      2.379879
        -2.379879      2.379879      2.379879
        -2.379879     -2.379879      2.379879
 AtomData:  id type       cartes_x      cartes_y      cartes_z           fx          fy          fz
             1    0       0.000000      0.000000      0.000000     0.000000    0.000000    0.000000
 Energy
        -13.945377914100
 PlusStress:  xx          yy          zz          yz          xz          xy
         0.43019     0.43019     0.43019     0.00000     0.00000     0.00000
 Feature   EFS_by	Qe
 Feature   mindist	4.122072
END_CFG

BEGIN_CFG
 Size
    1
 Supercell
         2.328699      2.328699      2.328699
        -2.328699      2.328699      2.328699
        -2.328699     -2.328699      2.328699
 AtomData:  id type       cartes_x      cartes_y      cartes_z           fx          fy          fz
             1    0       0.000000      0.000000      0.000000     0.000000    0.000000    0.000000
 Energy
        -13.912092402500
 PlusStress:  xx          yy          zz          yz          xz          xy
         0.59443     0.59443     0.59443     0.00000     0.00000    -0.00000
 Feature   EFS_by	Qe
 Feature   mindist	4.033425
END_CFG

BEGIN_CFG
 Size
    1
 Supercell
         2.942861      2.942861      2.942861
        -2.942861      2.942861      2.942861
        -2.942861     -2.942861      2.942861
 AtomData:  id type       cartes_x      cartes_y      cartes_z           fx          fy          fz
             1    0       0.000000      0.000000      0.000000     0.000000    0.000000    0.000000
 Energy
        -13.873663394700
 PlusStress:  xx          yy          zz          yz          xz          xy
        -0.48168    -0.48168    -0.48168     0.00000    -0.00000     0.00000
 Feature   EFS_by	Qe
 Feature   mindist	5.097185
END_CFG

BEGIN_CFG
 Size
    1
 Supercell
         2.891681      2.891681      2.891681
        -2.891681      2.891681      2.891681
        -2.891681     -2.891681      2.891681
 AtomData:  id type       cartes_x      cartes_y      cartes_z           fx          fy          fz
             1    0       0.000000      0.000000      0.000000     0.000000    0.000000    0.000000
 Energy
        -13.898017993300
 PlusStress:  xx          yy          zz          yz          xz          xy
        -0.44109    -0.44109    -0.44109     0.00000    -0.00000     0.00000
 Feature   EFS_by	Qe
 Feature   mindist	5.008539
END_CFG

BEGIN_CFG
 Size
    1
 Supercell
         2.559012      6.653428      6.653428
        -2.559012      2.559012      2.559012
        -2.559012     -2.559012      2.559012
 AtomData:  id type       cartes_x      cartes_y      cartes_z           fx          fy          fz
             1    0       0.000000      0.000000      0.000000     0.000000    0.000000    0.000000
 Energy
        -13.736353380200
 PlusStress:  xx          yy          zz          yz          xz          xy
        -0.13405    -0.25723    -0.13837    -0.00277    -0.15520    -0.00565
 Feature   EFS_by	Qe
 Feature   mindist	4.432338
END_CFG

BEGIN_CFG
 Size
    1
 Supercell
         2.559013      4.350318      4.350318
        -2.559013      2.559013      2.559013
        -2.559013     -2.559013      2.559013
 AtomData:  id type       cartes_x      cartes_y      cartes_z           fx          fy          fz
             1    0       0.000000      0.000000      0.000000     0.000000    0.000000    0.000000
 Energy
        -13.868529422500
 PlusStress:  xx          yy          zz          yz          xz          xy
        -0.31864    -0.24178    -0.23322    -0.03440    -0.25291    -0.00847
 Feature   EFS_by	Qe
 Feature   mindist	4.432341
END_CFG

BEGIN_CFG
 Size
    1
 Supercell
         2.559014      3.326714      3.326714
        -2.559014      2.559014      2.559014
        -2.559014     -2.559014      2.559014
 AtomData:  id type       cartes_x      cartes_y      cartes_z           fx          fy          fz
             1    0       0.000000      0.000000      0.000000     0.000000    0.000000    0.000000
 Energy
        -13.950350930900
 PlusStress:  xx          yy          zz          yz          xz          xy
        -0.18664    -0.19428    -0.15946    -0.11041    -0.15422    -0.06865
 Feature   EFS_by	Qe
 Feature   mindist	4.432342
END_CFG

BEGIN_CFG
 Size
    2
 Supercell
         2.379879      2.379879      2.379879
        -2.379879      2.379879      2.379879
        -2.379879     -2.379879      2.379879
 AtomData:  id type       cartes_x      cartes_y      cartes_z           fx          fy          fz
             1    0       0.000000      0.000000      0.000000     0.170984   -0.170984    0.008210
             2    0      -0.785361      0.785361      2.356082    -0.170984    0.170984   -0.008210
 Energy
        -25.806188961600
 PlusStress:  xx          yy          zz          yz          xz          xy
         2.55838     2.55838     2.42858    -0.01337     0.01337     0.17084
 Feature   EFS_by	Qe
 Feature   mindist	2.255115
END_CFG

BEGIN_CFG
 Size
    2
 Supercell
         2.175158      2.175158      2.175158
        -2.175158      2.175158      2.175158
        -2.175158     -2.175158      2.175158
 AtomData:  id type       cartes_x      cartes_y      cartes_z           fx          fy          fz
             1    0       0.000000      0.000000      0.000000     0.410212   -0.410212    0.034150
             2    0      -0.717803      0.717803      2.153408    -0.410212    0.410212   -0.034150
 Energy
        -25.091386667800
 PlusStress:  xx          yy          zz          yz          xz          xy
         3.32366     3.32366     1.43101    -0.04675     0.04675     1.10687
 Feature   EFS_by	Qe
 Feature   mindist	2.061127
END_CFG

BEGIN_CFG
 Size
    1
 Supercell
         2.559014      7.421131      7.421131
        -2.559014      2.559014      2.559014
        -2.559014     -2.559014      2.559014
 AtomData:  id type       cartes_x      cartes_y      cartes_z           fx          fy          fz
             1    0       0.000000      0.000000      0.000000     0.000000    0.000000    0.000000
 Energy
        -13.717133842200
 PlusStress:  xx          yy          zz          yz          xz          xy
        -0.07117    -0.27675    -0.07237    -0.00072    -0.10309    -0.00084
 Feature   EFS_by	Qe
 Feature   mindist	4.432343
END_CFG

BEGIN_CFG
 Size
    1
 Supercell
         2.686960      2.686960      2.686960
        -2.686960      2.686960      2.686960
        -2.686960     -2.686960      2.686960
 AtomData:  id type       cartes_x      cartes_y      cartes_z           fx          fy          fz
             1    0       0.000000      0.000000      0.000000     0.000000    0.000000    0.000000
 Energy
        -13.972214055100
 PlusStress:  xx          yy          zz          yz          xz          xy
        -0.21459    -0.21459    -0.21459     0.00000    -0.00000     0.00000
 Feature   EFS_by	Qe
 Feature   mindist	4.653952
END_CFG

BEGIN_CFG
 Size
    2
 Supercell
         2.891681      2.891681      2.891681
        -2.891681      2.891681      2.891681
        -2.891681     -2.891681      2.891681
 AtomData:  id type       cartes_x      cartes_y      cartes_z           fx          fy          fz
             1    0       0.000000      0.000000      0.000000    -0.217173    0.217173   -0.021458
             2    0      -0.954255      0.954255      2.862766     0.217173   -0.217173    0.021458
 Energy
        -26.880694485500
 PlusStress:  xx          yy          zz          yz          xz          xy
         0.68965     0.68965     2.11289     0.05231    -0.05231    -1.37316
 Feature   EFS_by	Qe
 Feature   mindist	2.740087
END_CFG

BEGIN_CFG
 Size
    2
 Supercell
         2.277519      2.277519      2.277519
        -2.277519      2.277519      2.277519
        -2.277519     -2.277519      2.277519
 AtomData:  id type       cartes_x      cartes_y      cartes_z           fx          fy          fz
             1    0       0.000000      0.000000      0.000000     0.284320   -0.284320    0.018316
             2    0      -0.751582      0.751582      2.254745    -0.284320    0.284320   -0.018316
 Energy
        -25.462743854300
 PlusStress:  xx          yy          zz          yz          xz          xy
         2.98817     2.98817     2.05261    -0.03107     0.03107     0.60569
 Feature   EFS_by	Qe
 Feature   mindist	2.158121
END_CFG

BEGIN_CFG
 Size
    1
 Supercell
         2.559012      3.582617      3.582617
        -2.559012      2.559012      2.559012
        -2.559012     -2.559018      2.559018
 AtomData:  id type       cartes_x      cartes_y      cartes_z           fx          fy          fz
             1    0       0.000000      0.000000      0.000000     0.000000    0.000000    0.000000
 Energy
        -13.928732165000
 PlusStress:  xx          yy          zz          yz          xz          xy
        -0.23338    -0.22082    -0.18619    -0.09896    -0.17777    -0.04269
 Feature   EFS_by	Qe
 Feature   mindist	4.432339
END_CFG

BEGIN_CFG
 Size
    1
 Supercell
         2.559011      4.862120      4.862120
        -2.559011      2.559011      2.559011