BEGIN_CFG
 Size
    2
 Supercell
    2.3798791396336396     2.3798791396336396      2.3798791396336396 
    -2.3798791396336396     2.3798791396336396      2.3798791396336396 
    -2.3798791396336396     -2.3798791396336396      2.3798791396336396 
 AtomData:  id type    cartes_x    cartes_y    cartes_z    fx    fy    fz
    1    0   0.0    0.0    0.0    0.17098428661356355    -0.17098428661356355    0.008209790121330688
    2    0   -0.7853605282864518    0.7853605282864518    2.3560815848593553    -0.17098428661356355    0.17098428661356355    -0.008209790121330688
 Energy
    -25.8061889616
 PlusStress:  xx          yy          zz          yz          xz          xy
    2.558376592073338   2.558376592073338    2.4285766032107934    -0.013366131576234543    0.013366131576234543    0.1708389632206867
 Feature EFS_by Qe
END_CFG

BEGIN_CFG
 Size
    2
 Supercell
    2.738140377515484     2.738140377515484      2.738140377515484 
    -2.738140377515484     2.738140377515484      2.738140377515484 
    -2.738140377515484     -2.738140377515484      2.738140377515484 
 AtomData:  id type    cartes_x    cartes_y    cartes_z    fx    fy    fz
    1    0   0.0    0.0    0.0    -0.1325460343530938    0.1325460343530938    -0.01551069520683713
    2    0   -0.9035867988401559    0.9035867988401559    2.710760396520468    0.1325460343530938    -0.1325460343530938    0.01551069520683713
 Energy
    -26.6611971055
 PlusStress:  xx          yy          zz          yz          xz          xy
    1.063224804506347   1.063224804506347    2.446502742974504    0.03920556646882006    -0.03920556646882006    -1.0979820470873587
 Feature EFS_by Qe
END_CFG

BEGIN_CFG
 Size
    2
 Supercell
    2.8405010367164736     2.8405010367164736      2.8405010367164736 
    -2.8405010367164736     2.8405010367164736      2.8405010367164736 
    -2.8405010367164736     -2.8405010367164736      2.8405010367164736 
 AtomData:  id type    cartes_x    cartes_y    cartes_z    fx    fy    fz
    1    0   0.0    0.0    0.0    -0.19195857644876427    0.19195857644876427    -0.019871029385774435
    2    0   -0.937365834105877    0.937365834105877    2.812097502317631    0.19195857644876427    -0.19195857644876427    0.019871029385774435
 Energy
    -26.8153342329
 PlusStress:  xx          yy          zz          yz          xz          xy
    0.8006338706972683   0.8006338706972683    2.2360848831942417    0.0487349675287761    -0.0487349675287761    -1.3003566724560658
 Feature EFS_by Qe
END_CFG

BEGIN_CFG
 Size
    1
 Supercell
    2.559014520007384     3.838515778598043      3.838515778598043 
    -2.559014520007384     2.559014520007384      2.559014520007384 
    -2.559014520007384     -2.559014520007384      2.559014520007384 
 AtomData:  id type    cartes_x    cartes_y    cartes_z    fx    fy    fz
    1    0   0.0    0.0    0.0    0.0    0.0    0.0
 Energy
    -13.9083141015
 PlusStress:  xx          yy          zz          yz          xz          xy
    -0.2766462578378222   -0.23241055198221935    -0.20710003506657879    -0.07300814757733405    -0.20025311711675503    -0.020079163875325802
 Feature EFS_by Qe
END_CFG

BEGIN_CFG
 Size
    1
 Supercell
    2.431059316473903     2.431059316473903      2.431059316473903 
    -2.431059316473903     2.431059316473903      2.431059316473903 
    -2.431059316473903     -2.431059316473903      2.431059316473903 
 AtomData:  id type    cartes_x    cartes_y    cartes_z    fx    fy    fz
    1    0   0.0    0.0    0.0    0.0    0.0    0.0
 Energy
    -13.9681383337
 PlusStress:  xx          yy          zz          yz          xz          xy
    0.2862092122557995   0.2862092122557995    0.2862092122557995    0.0    0.0    -0.0
 Feature EFS_by Qe
END_CFG

BEGIN_CFG
 Size
    1
 Supercell
    2.175158432272586     2.175158432272586      2.175158432272586 
    -2.175158432272586     2.175158432272586      2.175158432272586 
    -2.175158432272586     -2.175158432272586      2.175158432272586 
 AtomData:  id type    cartes_x    cartes_y    cartes_z    fx    fy    fz
    1    0   0.0    0.0    0.0    0.0    0.0    0.0
 Energy
    -13.7281884678
 PlusStress:  xx          yy          zz          yz          xz          xy
    1.240363059523888   1.240363059523888    1.240363059523888    0.0    0.0    -0.0
 Feature EFS_by Qe
END_CFG

BEGIN_CFG
 Size
    1
 Supercell
    2.559014969724403     5.8857239805731485      5.8857239805731485 
    -2.559014969724403     2.559014969724403      2.559014969724403 
    -2.559014969724403     -2.559014969724403      2.559014969724403 
 AtomData:  id type    cartes_x    cartes_y    cartes_z    fx    fy    fz
    1    0   0.0    0.0    0.0    0.0    0.0    0.0
 Energy
    -13.7683972363
 PlusStress:  xx          yy          zz          yz          xz          xy
    -0.21071587121232382   -0.2396575691860647    -0.20309963490344468    0.0    -0.21498096354529617    -0.008225535213589508
 Feature EFS_by Qe
END_CFG

BEGIN_CFG
 Size
    1
 Supercell
    2.559013772324436     6.1416258098140535      6.1416258098140535 
    -2.559013772324436     2.559013772324436      2.559013772324436 
    -2.559013772324436     -2.559013772324436      2.559013772324436 
 AtomData:  id type    cartes_x    cartes_y    cartes_z    fx    fy    fz
    1    0   0.0    0.0    0.0    0.0    0.0    0.0
 Energy
    -13.7562043584
 PlusStress:  xx          yy          zz          yz          xz          xy
    -0.18424811202431057   -0.24419937164380517    -0.18372497712361693    -0.001778658662358478    -0.19460618305804528    -0.00805627747068252
 Feature EFS_by Qe
END_CFG

BEGIN_CFG
 Size
    1
 Supercell
    2.559010829012745     5.629823823828039      5.629823823828039 
    -2.559010829012745     2.559010829012745      2.559010829012745 
    -2.559010829012745     -2.5590191919298806      2.5590191919298806 
 AtomData:  id type    cartes_x    cartes_y    cartes_z    fx    fy    fz
    1    0   0.0    0.0    0.0    0.0    0.0    0.0
 Energy
    -13.7820241542
 PlusStress:  xx          yy          zz          yz          xz          xy
    -0.23515236798721748   -0.2353493130190326    -0.21880593034656504    0.002166395349965991    -0.23318291766906662    -0.006597658565805516
 Feature EFS_by Qe
END_CFG

BEGIN_CFG
 Size
    1
 Supercell
    2.8405010367164736     2.8405010367164736      2.8405010367164736 
    -2.8405010367164736     2.8405010367164736      2.8405010367164736 
    -2.8405010367164736     -2.8405010367164736      2.8405010367164736 
 AtomData:  id type    cartes_x    cartes_y    cartes_z    fx    fy    fz
    1    0   0.0    0.0    0.0    0.0    0.0    0.0
 Energy
    -13.9204824891
 PlusStress:  xx          yy          zz          yz          xz          xy
    -0.39476165407592395   -0.39476165407592395    -0.39476165407592395    0.0    -0.0    0.0
 Feature EFS_by Qe
END_CFG

BEGIN_CFG
 Size
    1
 Supercell
    2.4822394933141663     2.4822394933141663      2.4822394933141663 
    -2.4822394933141663     2.4822394933141663      2.4822394933141663 
    -2.4822394933141663     -2.4822394933141663      2.4822394933141663 
 AtomData:  id type    cartes_x    cartes_y    cartes_z    fx    fy    fz
    1    0   0.0    0.0    0.0    0.0    0.0    0.0
 Energy
    -13.98197165
 PlusStress:  xx          yy          zz          yz          xz          xy
    0.15952422534017704   0.15952422534017704    0.15952422534017704    0.0    0.0    -0.0
 Feature EFS_by Qe
END_CFG

BEGIN_CFG
 Size
    1
 Supercell
    2.5590140863286677     7.677031104515145      7.677031104515145 
    -2.5590140863286677     2.5590140863286677      2.5590140863286677 
    -2.5590140863286677     -2.5590140863286677      2.5590140863286677 
 AtomData:  id type    cartes_x    cartes_y    cartes_z    fx    fy    fz
    1    0   0.0    0.0    0.0    0.0    0.0    0.0
 Energy
    -13.7130436988
 PlusStress:  xx          yy          zz          yz          xz          xy
    -0.054529126286826324   -0.28163124366649805    -0.054529126286826324    0.0    -0.08837903538135734    0.0
 Feature EFS_by Qe
END_CFG

BEGIN_CFG
 Size
    2
 Supercell
    2.6869602006752205     2.6869602006752205      2.6869602006752205 
    -2.6869602006752205     2.6869602006752205      2.6869602006752205 
    -2.6869602006752205     -2.6869602006752205      2.6869602006752205 
 AtomData:  id type    cartes_x    cartes_y    cartes_z    fx    fy    fz
    1    0   0.0    0.0    0.0    -0.09847120159558682    0.09847120159558682    -0.012881227806165402
    2    0   -0.8866973316181983    0.8866973316181983    2.6600919948545947    0.09847120159558682    -0.09847120159558682    0.012881227806165402
 Energy
    -26.5711570782
 PlusStress:  xx          yy          zz          yz          xz          xy
    1.2214427613205723   1.2214427613205723    2.5278108476233028    0.03327191842841269    -0.03327191842841269    -0.9673080010761437
 Feature EFS_by Qe
END_CFG

BEGIN_CFG
 Size
    1
 Supercell
    2.5590080946016944     6.909332966307689      6.909332966307689 
    -2.559018195404525     2.559018195404525      2.559018195404525 
    -2.559018195404525     -2.559018195404525      2.559018195404525 
 AtomData:  id type    cartes_x    cartes_y    cartes_z    fx    fy    fz
    1    0   0.0    0.0    0.0    0.0    0.0    0.0
 Energy
    -13.7286371836
 PlusStress:  xx          yy          zz          yz          xz          xy
    -0.1110126633352915   -0.264267068308935    -0.11499773330117376    -0.002391041979529355    -0.13663097025882032    -0.0039850699658822595
 Feature EFS_by Qe
END_CFG

BEGIN_CFG
 Size
    2
 Supercell
    2.3286989627933763     2.3286989627933763      2.3286989627933763 
    -2.3286989627933763     2.3286989627933763      2.3286989627933763 
    -2.3286989627933763     -2.3286989627933763      2.3286989627933763 
 AtomData:  id type    cartes_x    cartes_y    cartes_z    fx    fy    fz
    1    0   0.0    0.0    0.0    0.2272451702172584    -0.2272451702172584    0.013049377965551274
    2    0   -0.7684710610644941    0.7684710610644941    2.3054131831934823    -0.2272451702172584    0.2272451702172584    -0.013049377965551274
 Energy
    -25.6390469686
 PlusStress:  xx          yy          zz          yz          xz          xy
    2.7778905495722204   2.7778905495722204    2.2674944380114765    -0.022308089928279647    0.022308089928279647    0.38378262818402104
 Feature EFS_by Qe
END_CFG

BEGIN_CFG
 Size
    1
 Supercell
    2.5590107738872963     3.0708149449317412      3.0708149449317412 
    -2.5590107738872963     2.5590158145547606      2.5590158145547606 
    -2.5590158145547606     -2.5590158145547606      2.5590158145547606 
 AtomData:  id type    cartes_x    cartes_y    cartes_z    fx    fy    fz
    1    0   0.0    0.0    0.0    0.0    0.0    0.0
 Energy
    -13.9700136064
 PlusStress:  xx          yy          zz          yz          xz          xy
    -0.13729529028581916   -0.1512414588257002    -0.11854243258898883    -0.0882806008543926    -0.10310686740892633    -0.07006934193581006
 Feature EFS_by Qe
END_CFG

BEGIN_CFG
 Size
    1
 Supercell
    2.5590084711499097     5.11802461933291      5.11802461933291 
    -2.5590161481830007     2.5590161481830007      2.5590161481830007 
    -2.5590161481830007     -2.5590161481830007      2.5590161481830007 
 AtomData:  id type    cartes_x    cartes_y    cartes_z    fx    fy    fz
    1    0   0.0    0.0    0.0    0.0    0.0    0.0
 Energy
    -13.8134164336
 PlusStress:  xx          yy          zz          yz          xz          xy
    -0.28175475881856715   -0.23328777048968521    -0.24593534649169818    0.0    -0.2602446478078443    0.0
 Feature EFS_by Qe
END_CFG

BEGIN_CFG
 Size
    1
 Supercell
    2.5845998469946934     2.5845998469946934      2.5845998469946934 
    -2.5845998469946934     2.5845998469946934      2.5845998469946934 
    -2.5845998469946934     -2.5845998469946934      2.5845998469946934 
 AtomData:  id type    cartes_x    cartes_y    cartes_z    fx    fy    fz
    1    0   0.0    0.0    0.0    0.0    0.0    0.0
 Energy
    -13.9880687692
 PlusStress:  xx          yy          zz          yz          xz          xy
    -0.05079134574687077   -0.05079134574687077    -0.05079134574687077    0.0    -0.0    -0.0
 Feature EFS_by Qe
END_CFG

BEGIN_CFG
 Size
    2
 Supercell
    2.226338609112849     2.226338609112849      2.226338609112849 
    -2.226338609112849     2.226338609112849      2.226338609112849 
    -2.226338609112849     -2.226338609112849      2.226338609112849 
 AtomData:  id type    cartes_x    cartes_y    cartes_z    fx    fy    fz
    1    0   0.0    0.0    0.0    0.3415273718914908    -0.3415273718914908    0.02463759789472654
    2    0   -0.7346921266205786    0.7346921266205786    2.204076379861736    -0.3415273718914908    0.3415273718914908    -0.02463759789472654
 Energy
    -25.2795797972
 PlusStress:  xx          yy          zz          yz          xz          xy
    3.155276505676333   3.155276505676333    1.765503955003251    -0.03963599540879139    0.03963599540879139    0.8333285660486387
 Feature EFS_by Qe
END_CFG

BEGIN_CFG
 Size
    2
 Supercell
    2.9428613903970007     2.9428613903970007      2.9428613903970007 
    -2.9428613903970007     2.9428613903970007      2.9428613903970007 
    -2.9428613903970007     -2.9428613903970007      2.9428613903970007 
 AtomData:  id type    cartes_x    cartes_y    cartes_z    fx    fy    fz
    1    0   0.0    0.0    0.0    -0.23924322402114484    0.23924322402114484    -0.022640879029603177
    2    0   -0.9711447685497926    0.9711447685497926    2.913434305649378    0.23924322402114484    -0.23924322402114484    0.022640879029603177
 Energy
    -26.9390078055
 PlusStress:  xx          yy          zz          yz          xz          xy
    0.5905371311735603   0.5905371311735603    1.9823102494838583    0.05513177528312365    -0.05513177528312365    -1.428558835944029
 Feature EFS_by Qe
END_CFG

BEGIN_CFG
 Size
    1
 Supercell
    2.53341967015443     2.53341967015443      2.53341967015443 
    -2.53341967015443     2.53341967015443      2.53341967015443 
    -2.53341967015443     -2.53341967015443      2.53341967015443 
 AtomData:  id type    cartes_x    cartes_y    cartes_z    fx    fy    fz
    1    0   0.0    0.0    0.0    0.0    0.0    0.0
 Energy
    -13.988238024
 PlusStress:  xx          yy          zz          yz          xz          xy
    0.0477139592021065   0.0477139592021065    0.0477139592021065    0.0    0.0    -0.0
 Feature EFS_by Qe
END_CFG

BEGIN_CFG
 Size
    1
 Supercell
    2.559010824500451     4.094419851458245      4.094419851458245 
    -2.559010824500451     2.559010824500451      2.5590171551442604 
    -2.5590171551442604     -2.5590171551442604      2.5590171551442604 
 AtomData:  id type    cartes_x    cartes_y    cartes_z    fx    fy    fz
    1    0   0.0    0.0    0.0    0.0    0.0    0.0
 Energy
    -13.8883052973
 PlusStress:  xx          yy          zz          yz          xz          xy
    -0.3059538914403901   -0.23746630486272957    -0.22354476273128923    -0.05160571652171852    -0.23106559583678    -0.011041223069763031
 Feature EFS_by Qe
END_CFG

BEGIN_CFG
 Size
    1
 Supercell
    2.5590124366959732     5.373923711318967      5.373923711318967 
    -2.5590124366959732     2.5590124366959732      2.5590124366959732 
    -2.5590124366959732     -2.5590124366959732      2.5590124366959732 
 AtomData:  id type    cartes_x    cartes_y    cartes_z    fx    fy    fz
    1    0   0.0    0.0    0.0    0.0    0.0    0.0
 Energy
    -13.7970598055
 PlusStress:  xx          yy          zz          yz          xz          xy
    -0.2597608270656223   -0.23305020217455577    -0.23467191868579906    0.002480272311313323    -0.249839737820369    -0.0031480379335899872
 Feature EFS_by Qe
END_CFG

BEGIN_CFG
 Size
    2
 Supercell
    2.6869602006752205     2.6869602006752205      2.6869602006752205 
    -2.6869602006752205     2.6869602006752205      2.6869602006752205 
    -2.6869602006752205     -2.6869602006752205      2.6869602006752205 
 AtomData:  id type    cartes_x    cartes_y    cartes_z    fx    fy    fz
    1    0   0.0    0.0    0.0    -0.09847120159558682    0.09847120159558682    -0.012881227806165402
    2    0   -0.8866973316181983    0.8866973316181983    2.6600919948545947    0.09847120159558682    -0.09847120159558682    0.012881227806165402
 Energy
    -26.5711570782
 PlusStress:  xx          yy          zz          yz          xz          xy
    1.2214427613205723   1.2214427613205723    2.5278108476233028    0.03327191842841269    -0.03327191842841269    -0.9673080010761437
 Feature EFS_by Qe
END_CFG

BEGIN_CFG
 Size
    1
 Supercell
    2.226338609112849     2.226338609112849      2.226338609112849 
    -2.226338609112849     2.226338609112849      2.226338609112849 
    -2.226338609112849     -2.226338609112849      2.226338609112849 
 AtomData:  id type    cartes_x    cartes_y    cartes_z    fx    fy    fz
    1    0   0.0    0.0    0.0    0.0    0.0    0.0
 Energy
    -13.8059671806
 PlusStress:  xx          yy          zz          yz          xz          xy
    0.994912117883865   0.994912117883865    0.994912117883865    -0.0    0.0    -0.0
 Feature EFS_by Qe
END_CFG

BEGIN_CFG
 Size
    1
 Supercell
    2.7893208598762103     2.7893208598762103      2.7893208598762103 
    -2.7893208598762103     2.7893208598762103      2.7893208598762103 
    -2.7893208598762103     -2.7893208598762103      2.7893208598762103 
 AtomData:  id type    cartes_x    cartes_y    cartes_z    fx    fy    fz
    1    0   0.0    0.0    0.0    0.0    0.0    0.0
 Energy
    -13.9406536093
 PlusStress:  xx          yy          zz          yz          xz          xy
    -0.3422431190089578   -0.3422431190089578    -0.3422431190089578    -0.0    0.0    0.0
 Feature EFS_by Qe
END_CFG

BEGIN_CFG
 Size
    2
 Supercell
    2.53341967015443     2.53341967015443      2.53341967015443 
    -2.53341967015443     2.53341967015443      2.53341967015443 
    -2.53341967015443     -2.53341967015443      2.53341967015443 
 AtomData:  id type    cartes_x    cartes_y    cartes_z    fx    fy    fz
    1    0   0.0    0.0    0.0    0.021379495723873685    -0.021379495723873685    -0.0034416789503658694
    2    0   -0.836028929952325    0.836028929952325    2.508086789856975    -0.021379495723873685    0.021379495723873685    0.0034416789503658694
 Energy
    -26.2405683984
 PlusStress:  xx          yy          zz          yz          xz          xy
    1.8251335858497886   1.8251335858497886    2.626477288644616    0.011883701978997739    -0.011883701978997739    -0.4616728643197564
 Feature EFS_by Qe
END_CFG

BEGIN_CFG
 Size
    2
 Supercell
    2.4822394933141663     2.4822394933141663      2.4822394933141663 
    -2.4822394933141663     2.4822394933141663      2.4822394933141663 
    -2.4822394933141663     -2.4822394933141663      2.4822394933141663 
 AtomData:  id type    cartes_x    cartes_y    cartes_z    fx    fy    fz
    1    0   0.0    0.0    0.0    0.06774497384701192    -0.06774497384701192    2.802502656431195e-05
    2    0   -0.8191394627303672    0.8191394627303672    2.4574183881911016    -0.06774497384701192    0.06774497384701192    -2.802502656431195e-05
 Energy
    -26.1077757462
 PlusStress:  xx          yy          zz          yz          xz          xy
    2.0664565936759764   2.0664565936759764    2.5999640205354844    0.0037634236259830502    -0.0037634236259830502    -0.2581596266420612
 Feature EFS_by Qe
END_CFG

BEGIN_CFG
 Size
    1
 Supercell
    2.5590154814324153     6.397529301174118      6.397529301174118 
    -2.5590154814324153     2.5590154814324153      2.5590154814324153 
    -2.5590154814324153     -2.5590154814324153      2.5590154814324153 
 AtomData:  id type    cartes_x    cartes_y    cartes_z    fx    fy    fz
    1    0   0.0    0.0    0.0    0.0    0.0    0.0
 Energy
    -13.7455244337
 PlusStress:  xx          yy          zz          yz          xz          xy
    -0.15854093076979967   -0.25030511080775436    -0.1616643594330634    -0.002584906479942386    -0.17458889183277532    -0.007108492819841562
 Feature EFS_by Qe
END_CFG

BEGIN_CFG
 Size
    2
 Supercell
    2.7893208598762103     2.7893208598762103      2.7893208598762103 
    -2.7893208598762103     2.7893208598762103      2.7893208598762103 
    -2.7893208598762103     -2.7893208598762103      2.7893208598762103 
 AtomData:  id type    cartes_x    cartes_y    cartes_z    fx    fy    fz
    1    0   0.0    0.0    0.0    -0.1636121619651368    0.1636121619651368    -0.017822888453560594
    2    0   -0.9204763668839193    0.9204763668839193    2.761429100651758    0.1636121619651368    -0.1636121619651368    0.017822888453560594
 Energy
    -26.7423703027
 PlusStress:  xx          yy          zz          yz          xz          xy
    0.9227971196752945   0.9227971196752945    2.34708322509916    0.04431466561923162    -0.04431466561923162    -1.2089295829361606
 Feature EFS_by Qe
END_CFG

BEGIN_CFG
 Size
    1
 Supercell
    2.6357800238349567     2.6357800238349567      2.6357800238349567 
    -2.6357800238349567     2.6357800238349567      2.6357800238349567 
    -2.6357800238349567     -2.6357800238349567      2.6357800238349567 
 AtomData:  id type    cartes_x    cartes_y    cartes_z    fx    fy    fz
    1    0   0.0    0.0    0.0    0.0    0.0    0.0
 Energy
    -13.9824505704
 PlusStress:  xx          yy          zz          yz          xz          xy
    -0.1378664550144011   -0.1378664550144011    -0.1378664550144011    -0.0    0.0    -0.0
 Feature EFS_by Qe
END_CFG

BEGIN_CFG
 Size
    1
 Supercell
    2.5590108540952157     2.814912885993001      2.814912885993001 
    -2.5590108540952157     2.5590155865365345      2.5590155865365345 
    -2.5590155865365345     -2.5590155865365345      2.5590155865365345 
 AtomData:  id type    cartes_x    cartes_y    cartes_z    fx    fy    fz
    1    0   0.0    0.0    0.0    0.0    0.0    0.0
 Energy
    -13.9838671951
 PlusStress:  xx          yy          zz          yz          xz          xy
    -0.0798088703374537   -0.08711122041691303    -0.06539803787975963    -0.04614051289145096    -0.048143812470771666    -0.04484806154995374
 Feature EFS_by Qe
END_CFG

BEGIN_CFG
 Size
    1
 Supercell
    2.3798791396336396     2.3798791396336396      2.3798791396336396 
    -2.3798791396336396     2.3798791396336396      2.3798791396336396 
    -2.3798791396336396     -2.3798791396336396      2.3798791396336396 
 AtomData:  id type    cartes_x    cartes_y    cartes_z    fx    fy    fz
    1    0   0.0    0.0    0.0    0.0    0.0    0.0
 Energy
    -13.9453779141
 PlusStress:  xx          yy          zz          yz          xz          xy
    0.43019141999065996   0.43019141999065996    0.43019141999065996    0.0    0.0    0.0
 Feature EFS_by Qe
END_CFG

BEGIN_CFG
 Size
    1
 Supercell
    2.3286989627933763     2.3286989627933763      2.3286989627933763 
    -2.3286989627933763     2.3286989627933763      2.3286989627933763 
    -2.3286989627933763     -2.3286989627933763      2.3286989627933763 
 AtomData:  id type    cartes_x    cartes_y    cartes_z    fx    fy    fz
    1    0   0.0    0.0    0.0    0.0    0.0    0.0
 Energy
    -13.9120924025
 PlusStress:  xx          yy          zz          yz          xz          xy
    0.5944340719558425   0.5944340719558425    0.5944340719558425    0.0    0.0    -0.0
 Feature EFS_by Qe
END_CFG

BEGIN_CFG
 Size
    1
 Supercell
    2.9428613903970007     2.9428613903970007      2.9428613903970007 
    -2.9428613903970007     2.9428613903970007      2.9428613903970007 
    -2.9428613903970007     -2.9428613903970007      2.9428613903970007 
 AtomData:  id type    cartes_x    cartes_y    cartes_z    fx    fy    fz
    1    0   0.0    0.0    0.0    0.0    0.0    0.0
 Energy
    -13.8736633947
 PlusStress:  xx          yy          zz          yz          xz          xy
    -0.4816776156315013   -0.4816776156315013    -0.4816776156315013    0.0    -0.0    0.0
 Feature EFS_by Qe
END_CFG

BEGIN_CFG
 Size
    1
 Supercell
    2.8916812135567374     2.8916812135567374      2.8916812135567374 
    -2.8916812135567374     2.8916812135567374      2.8916812135567374 
    -2.8916812135567374     -2.8916812135567374      2.8916812135567374 
 AtomData:  id type    cartes_x    cartes_y    cartes_z    fx    fy    fz
    1    0   0.0    0.0    0.0    0.0    0.0    0.0
 Energy
    -13.8980179933
 PlusStress:  xx          yy          zz          yz          xz          xy
    -0.4410853783449177   -0.4410853783449177    -0.4410853783449177    0.0    -0.0    0.0
 Feature EFS_by Qe
END_CFG

BEGIN_CFG
 Size
    1
 Supercell
    2.5590115870585697     6.653428176123965      6.653428176123965 
    -2.5590115870585697     2.5590115870585697      2.5590115870585697 
    -2.5590115870585697     -2.5590115870585697      2.5590115870585697 
 AtomData:  id type    cartes_x    cartes_y    cartes_z    fx    fy    fz
    1    0   0.0    0.0    0.0    0.0    0.0    0.0
 Energy
    -13.7363533802
 PlusStress:  xx          yy          zz          yz          xz          xy
    -0.13404536496195568   -0.2572341631749266    -0.13836583540287822    -0.002769532333924704    -0.15520459199314043    -0.005649845961206397
 Feature EFS_by Qe
END_CFG

BEGIN_CFG
 Size
    1
 Supercell
    2.5590131996351     4.350318441421291      4.350318441421291 
    -2.5590131996351     2.5590131996351      2.5590131996351 
    -2.5590131996351     -2.5590131996351      2.5590131996351 
 AtomData:  id type    cartes_x    cartes_y    cartes_z    fx    fy    fz
    1    0   0.0    0.0    0.0    0.0    0.0    0.0
 Energy
    -13.8685294225
 PlusStress:  xx          yy          zz          yz          xz          xy
    -0.3186351804682313   -0.2417805411114871    -0.23322267316149287    -0.03439764399318064    -0.2529140780561398    -0.008474781853392331
 Feature EFS_by Qe
END_CFG

BEGIN_CFG
 Size
    1
 Supercell
    2.559013949958113     3.3267143860160044      3.3267143860160044 
    -2.559013949958113     2.559013949958113      2.559013949958113 
    -2.559013949958113     -2.559013949958113      2.559013949958113 
 AtomData:  id type    cartes_x    cartes_y    cartes_z    fx    fy    fz
    1    0   0.0    0.0    0.0    0.0    0.0    0.0
 Energy
    -13.9503509309
 PlusStress:  xx          yy          zz          yz          xz          xy
    -0.18663922162064678   -0.1942831487859975    -0.15946081392162198    -0.1104122812772882    -0.1542233082712891    -0.06865379028139074
 Feature EFS_by Qe
END_CFG

BEGIN_CFG
 Size
    2
 Supercell
    2.3798791396336396     2.3798791396336396      2.3798791396336396 
    -2.3798791396336396     2.3798791396336396      2.3798791396336396 
    -2.3798791396336396     -2.3798791396336396      2.3798791396336396 
 AtomData:  id type    cartes_x    cartes_y    cartes_z    fx    fy    fz
    1    0   0.0    0.0    0.0    0.17098428661356355    -0.17098428661356355    0.008209790121330688
    2    0   -0.7853605282864518    0.7853605282864518    2.3560815848593553    -0.17098428661356355    0.17098428661356355    -0.008209790121330688
 Energy
    -25.8061889616
 PlusStress:  xx          yy          zz          yz          xz          xy
    2.558376592073338   2.558376592073338    2.4285766032107934    -0.013366131576234543    0.013366131576234543    0.1708389632206867
 Feature EFS_by Qe
END_CFG

BEGIN_CFG
 Size
    2
 Supercell
    2.175158432272586     2.175158432272586      2.175158432272586 
    -2.175158432272586     2.175158432272586      2.175158432272586 
    -2.175158432272586     -2.175158432272586      2.175158432272586 
 AtomData:  id type    cartes_x    cartes_y    cartes_z    fx    fy    fz
    1    0   0.0    0.0    0.0    0.4102115697939103    -0.4102115697939103    0.0341499089754591
    2    0   -0.7178026593986209    0.7178026593986209    2.1534079781958626    -0.4102115697939103    0.4102115697939103    -0.0341499089754591
 Energy
    -25.0913866678
 PlusStress:  xx          yy          zz          yz          xz          xy
    3.323660480918201   3.323660480918201    1.4310078860539939    -0.0467540940558567    0.0467540940558567    1.10686632532398
 Feature EFS_by Qe
END_CFG

BEGIN_CFG
 Size
    1
 Supercell
    2.5590144447933105     7.421131087357459      7.421131087357459 
    -2.5590144447933105     2.5590144447933105      2.5590144447933105 
    -2.5590144447933105     -2.5590144447933105      2.5590144447933105 
 AtomData:  id type    cartes_x    cartes_y    cartes_z    fx    fy    fz
    1    0   0.0    0.0    0.0    0.0    0.0    0.0
 Energy
    -13.7171338422
 PlusStress:  xx          yy          zz          yz          xz          xy
    -0.07116792566748983   -0.2767508205551965    -0.07236805932124175    -0.0007200801922511617    -0.10309148085729133    -0.0008400935576263554
 Feature EFS_by Qe
END_CFG

BEGIN_CFG
 Size
    1
 Supercell
    2.6869602006752205     2.6869602006752205      2.6869602006752205 
    -2.6869602006752205     2.6869602006752205      2.6869602006752205 
    -2.6869602006752205     -2.6869602006752205      2.6869602006752205 
 AtomData:  id type    cartes_x    cartes_y    cartes_z    fx    fy    fz
    1    0   0.0    0.0    0.0    0.0    0.0    0.0
 Energy
    -13.9722140551
 PlusStress:  xx          yy          zz          yz          xz          xy
    -0.2145931869515611   -0.2145931869515611    -0.2145931869515611    0.0    -0.0    0.0
 Feature EFS_by Qe
END_CFG

BEGIN_CFG
 Size
    2
 Supercell
    2.8916812135567374     2.8916812135567374      2.8916812135567374 
    -2.8916812135567374     2.8916812135567374      2.8916812135567374 
    -2.8916812135567374     -2.8916812135567374      2.8916812135567374 
 AtomData:  id type    cartes_x    cartes_y    cartes_z    fx    fy    fz
    1    0   0.0    0.0    0.0    -0.21717338704658143    0.21717338704658143    -0.02145817148652212
    2    0   -0.9542553013278349    0.9542553013278349    2.862765903983505    0.21717338704658143    -0.21717338704658143    0.02145817148652212
 Energy