BEGIN_CFG
 Size
    6
 Supercell
         5.059055      0.000000      0.000000
         0.000000      5.059055      0.000000
         0.000000      0.000000     15.177164
 AtomData:  id type       cartes_x      cartes_y      cartes_z           fx          fy          fz
             1    0       2.600704      4.421494      1.914149    -0.254082   -0.357289    0.277312
             2    0       4.893949      1.296413      0.594276    -0.016999    0.303411    0.048398
             3    0       4.289608      2.004677      4.960436     0.045898   -0.013785   -0.140667
             4    0       1.685286      4.496737      6.999125    -0.047062    0.047581    0.126838
             5    0       0.978140      1.494013     12.735878     0.112344    0.039311   -0.197824
             6    0       3.259005      3.993358     10.739046     0.159903   -0.019230   -0.114057
 Energy
        -83.458112516000
 PlusStress:  xx          yy          zz          yz          xz          xy
         0.72650    -0.06705     0.70974    -0.73685    -0.53284     0.13838
 Feature   EFS_by	Qe
 Feature   mindist	3.249723
END_CFG

BEGIN_CFG
 Size
    2
 Supercell
         4.956852      0.000000      0.000000
         0.000000      4.956852      0.000000
         0.000000      0.000000      4.956852
 AtomData:  id type       cartes_x      cartes_y      cartes_z           fx          fy          fz
             1    0       0.312202      4.723651      4.720741    -0.331117    0.275280    0.277750
             2    0       2.166224      2.711627      2.714537     0.331117   -0.275280   -0.277750
 Energy
        -27.922364982400
 PlusStress:  xx          yy          zz          yz          xz          xy
         0.08901     0.29074     0.28392     0.18250    -0.22007    -0.21817
 Feature   EFS_by	Qe
 Feature   mindist	3.392712
END_CFG

BEGIN_CFG
 Size
    2
 Supercell
         5.365664      0.000000      0.000000
         0.000000      5.365664      0.000000
         0.000000      0.000000      5.365664
 AtomData:  id type       cartes_x      cartes_y      cartes_z           fx          fy          fz
             1    0       0.569260      0.398097      4.902498    -0.558038   -0.567747    0.576011
             2    0       2.113572      2.284735      3.145999     0.558038    0.567747   -0.576011
 Energy
        -27.479331644500
 PlusStress:  xx          yy          zz          yz          xz          xy
        -0.16623     0.40111     0.17205    -0.70734    -0.69486     0.68493
 Feature   EFS_by	Qe
 Feature   mindist	3.004928
END_CFG

BEGIN_CFG
 Size
    2
 Supercell
         5.263461      0.000000      0.000000
         0.000000      5.263461      0.000000
         0.000000      0.000000      5.263461
 AtomData:  id type       cartes_x      cartes_y      cartes_z           fx          fy          fz
             1    0       5.111859      0.700983      5.094602     0.193250   -0.326147    0.212033
             2    0       2.783333      1.930747      2.800590    -0.193250    0.326147   -0.212033
 Energy
        -27.760128249900
 PlusStress:  xx          yy          zz          yz          xz          xy
         0.35801    -0.75819     0.32882    -0.20846     0.11635    -0.18985
 Feature   EFS_by	Qe
 Feature   mindist	3.492398
END_CFG

BEGIN_CFG
 Size
    2
 Supercell
         4.854649      0.000000      0.000000
         0.000000      4.854649      0.000000
         0.000000      0.000000      4.854649
 AtomData:  id type       cartes_x      cartes_y      cartes_z           fx          fy          fz
             1    0       0.430375      4.852883      4.854351    -0.381890    0.002432    0.000411
             2    0       1.996949      2.429090      2.427622     0.381890   -0.002432   -0.000411
 Energy
        -27.950188488500
 PlusStress:  xx          yy          zz          yz          xz          xy
        -0.19697     0.69679     0.69679     0.00000    -0.00032    -0.00200
 Feature   EFS_by	Qe
 Feature   mindist	3.770668
END_CFG

BEGIN_CFG
 Size
    4
 Supercell
         5.365664      0.000000      0.000000
         0.000000      5.365664      0.000000
         0.000000      0.000000     10.731328
 AtomData:  id type       cartes_x      cartes_y      cartes_z           fx          fy          fz
             1    0       4.066017      0.543297      3.149554     0.041267   -0.041151   -0.137781
             2    0       1.729903      5.368480      6.830573    -0.707421   -0.713811   -0.263877
             3    0       3.692133      1.868216      7.029360     0.777195    0.687438    0.006142
             4    0       1.243276      2.951336      9.818834    -0.111041    0.067523    0.395515
 Energy
        -54.959583306000
 PlusStress:  xx          yy          zz          yz          xz          xy
         0.71230     0.41842     0.11602     0.43402    -0.40310     0.82946
 Feature   EFS_by	Qe
 Feature   mindist	2.714697
END_CFG

BEGIN_CFG
 Size
    4
 Supercell
         4.854649      0.000000      0.000000
         0.000000      4.854649      0.000000
         0.000000      0.000000      9.709298
 AtomData:  id type       cartes_x      cartes_y      cartes_z           fx          fy          fz
             1    0       2.875941      2.853023      2.015036    -0.123668   -0.201541    0.325906
             2    0       0.094602      0.054187      5.644964    -0.279888    0.036219   -0.703939
             3    0       0.009788      4.400965      9.210923    -0.177441    0.375174    0.408674
             4    0       1.874317      2.401122      7.402320     0.580997   -0.209852   -0.030641
 Energy
        -55.563795533700
 PlusStress:  xx          yy          zz          yz          xz          xy
         0.88871     1.34630     1.88604    -0.03971    -0.17060    -0.00987
 Feature   EFS_by	Qe
 Feature   mindist	3.278244
END_CFG

BEGIN_CFG
 Size
    1
 Supercell
         3.193853      3.193858      3.193864
        -3.193869      3.193875      3.193880
        -3.193886     -3.193891      3.193897
 AtomData:  id type       cartes_x      cartes_y      cartes_z           fx          fy          fz
             1    0       0.000000      0.000000      0.000000     0.000000    0.000000    0.000000
 Energy
        -13.737094482300
 PlusStress:  xx          yy          zz          yz          xz          xy
        -0.61299    -0.61299    -0.61299    -0.00000     0.00000     0.00012
 Feature   EFS_by	Qe
 Feature   mindist	5.531924
END_CFG

BEGIN_CFG
 Size
    2
 Supercell
         5.416770      0.000000      0.000000
         0.000000      5.416770      0.000000
         0.000000      0.000000      5.416775
 AtomData:  id type       cartes_x      cartes_y      cartes_z           fx          fy          fz
             1    0       0.000000      0.000000      0.000000     0.000000    0.000000    0.000000
             2    0       2.708385      2.708386      2.708403     0.000000    0.000000    0.000000
 Energy
        -27.940525045000
 PlusStress:  xx          yy          zz          yz          xz          xy
        -0.49163    -0.49163    -0.49163     0.00000     0.00000     0.00000
 Feature   EFS_by	Qe
 Feature   mindist	4.691052
END_CFG

BEGIN_CFG
 Size
    1
 Supercell
         2.427325      2.427325      2.427325
        -2.427329      2.427329      2.427329
        -2.427329     -2.427329      2.427329
 AtomData:  id type       cartes_x      cartes_y      cartes_z           fx          fy          fz
             1    0       0.000000      0.000000      0.000000     0.000000    0.000000    0.000000
 Energy
        -13.966802118600
 PlusStress:  xx          yy          zz          yz          xz          xy
         0.29598     0.29608     0.29603     0.00005     0.00000    -0.00000
 Feature   EFS_by	Qe
 Feature   mindist	4.204251
END_CFG

BEGIN_CFG
 Size
    2
 Supercell
         5.212364      0.000000      0.000000
         0.000000      5.212364      0.000000
         0.000000      0.000000      5.212370
 AtomData:  id type       cartes_x      cartes_y      cartes_z           fx          fy          fz
             1    0       0.000000      0.000000      0.000000     0.000000    0.000000    0.000000
             2    0       2.606183      2.606183      2.606200     0.000000    0.000000    0.000000
 Energy
        -27.980363602600
 PlusStress:  xx          yy          zz          yz          xz          xy
        -0.18138    -0.18138    -0.18138     0.00000     0.00000     0.00000
 Feature   EFS_by	Qe
 Feature   mindist	4.514032
END_CFG

BEGIN_CFG
 Size
    2
 Supercell
         5.365664      0.000000      0.000000
         0.000000      5.365664      0.000000
         0.000000      0.000000      5.365664
 AtomData:  id type       cartes_x      cartes_y      cartes_z           fx          fy          fz
             1    0       5.085197      0.000961     -0.007250     0.152101   -0.000695    0.004870
             2    0       2.963299      2.681872      2.690082    -0.152101    0.000695   -0.004870
 Energy
        -28.011859285300
 PlusStress:  xx          yy          zz          yz          xz          xy
        -0.64252    -0.49359    -0.49345    -0.00014     0.00468    -0.00071
 Feature   EFS_by	Qe
 Feature   mindist	4.337018
END_CFG

BEGIN_CFG
 Size
    1
 Supercell
         2.171817      2.171817      2.171817
        -2.171821      2.171821      2.171821
        -2.171821     -2.171821      2.171821
 AtomData:  id type       cartes_x      cartes_y      cartes_z           fx          fy          fz
             1    0       0.000000      0.000000      0.000000     0.000000    0.000000    0.000000
 Energy
        -13.722442783600
 PlusStress:  xx          yy          zz          yz          xz          xy
         1.25686     1.25705     1.25693     0.00008     0.00004    -0.00000
 Feature   EFS_by	Qe
 Feature   mindist	3.761698
END_CFG

BEGIN_CFG
 Size
    2
 Supercell
         5.263461      0.000000      0.000000
         0.000000      5.263461      0.000000
         0.000000      0.000000      5.263461
 AtomData:  id type       cartes_x      cartes_y      cartes_z           fx          fy          fz
             1    0       5.120427      0.748419      5.060244     0.197795   -0.329168    0.265004
             2    0       2.774764      1.883312      2.834947    -0.197795    0.329168   -0.265004
 Energy
        -27.716006075900
 PlusStress:  xx          yy          zz          yz          xz          xy
         0.50180    -0.80237     0.38545    -0.24635     0.14098    -0.18342
 Feature   EFS_by	Qe
 Feature   mindist	3.426670
END_CFG

BEGIN_CFG
 Size
    2
 Supercell
         4.956852      0.000000      0.000000
         0.000000      4.956852      0.000000
         0.000000      0.000000      4.956852
 AtomData:  id type       cartes_x      cartes_y      cartes_z           fx          fy          fz
             1    0       0.404955      4.636397      4.570236    -0.557092    0.521542    0.552122
             2    0       2.073471      2.798881      2.865042     0.557092   -0.521542   -0.552122
 Energy
        -27.653656491000
 PlusStress:  xx          yy          zz          yz          xz          xy
         0.37316     0.71948     0.44830     0.51752    -0.54402    -0.52032
 Feature   EFS_by	Qe
 Feature   mindist	3.011328
END_CFG

BEGIN_CFG
 Size
    2
 Supercell
         5.161258      0.000000      0.000000
         0.000000      5.161258      0.000000
         0.000000      0.000000      5.161258
 AtomData:  id type       cartes_x      cartes_y      cartes_z           fx          fy          fz
             1    0       0.142286      5.163600      4.459222    -0.188821   -0.003284    0.336740
             2    0       2.438343      2.578287      3.282665     0.188821    0.003284   -0.336740
 Energy
        -27.787851073900
 PlusStress:  xx          yy          zz          yz          xz          xy
         0.46821     0.59091    -0.76739    -0.00303    -0.17282     0.00151
 Feature   EFS_by	Qe
 Feature   mindist	3.645772
END_CFG

BEGIN_CFG
 Size
    6
 Supercell
         5.161258      0.000000      0.000000
         0.000000      5.161258      0.000000
         0.000000      0.000000     15.483774
 AtomData:  id type       cartes_x      cartes_y      cartes_z           fx          fy          fz
             1    0       0.294438      1.224322      1.801689     0.041180   -0.034498    0.090685
             2    0       0.219650      4.298768      5.783154    -0.102127   -0.101929   -0.026717
             3    0       2.110867      1.307994      8.634748     0.015534   -0.349811   -0.901439
             4    0       4.934638      0.123619     12.031946     0.055787   -0.175672    0.206027
             5    0       2.338160      2.392752     10.936208     0.096639    0.655062    0.658545
             6    0       3.005393      3.555690     15.005463    -0.107013    0.006848   -0.027101
 Energy
        -82.927374704000
 PlusStress:  xx          yy          zz          yz          xz          xy
        -0.69152    -0.12346     1.47280     0.46468     0.30259     0.30600
 Feature   EFS_by	Qe
 Feature   mindist	2.554424
END_CFG

BEGIN_CFG
 Size
    4
 Supercell
         4.854649      0.000000      0.000000
         0.000000      4.854649      0.000000
         0.000000      0.000000      9.709298
 AtomData:  id type       cartes_x      cartes_y      cartes_z           fx          fy          fz
             1    0       2.541052      2.468763      2.533007    -0.056470   -0.037764    0.021785
             2    0       4.853887      0.101185      5.454020     0.002844   -0.052309   -0.399283
             3    0       4.768271      4.683145     -0.052902     0.050191    0.064221   -0.060217
             4    0       2.400736      2.456204      6.629821     0.003436    0.025853    0.437715
 Energy
        -55.954812402400
 PlusStress:  xx          yy          zz          yz          xz          xy
         1.02423     1.00385     0.41641    -0.05336    -0.05799     0.01723
 Feature   EFS_by	Qe
 Feature   mindist	3.563119
END_CFG

BEGIN_CFG
 Size
    1
 Supercell
         2.555088      5.621176      5.621176
        -2.555097      2.555105      2.555113
        -2.555113     -2.555122      2.555130
 AtomData:  id type       cartes_x      cartes_y      cartes_z           fx          fy          fz
             1    0       0.000000      0.000000      0.000000     0.000000    0.000000    0.000000
 Energy
        -13.783079956000
 PlusStress:  xx          yy          zz          yz          xz          xy
        -0.23270    -0.22898    -0.21624     0.00225    -0.23780    -0.00676
 Feature   EFS_by	Qe
 Feature   mindist	4.425572
END_CFG

BEGIN_CFG
 Size
    1
 Supercell
         2.299571      2.299571      2.299571
        -2.299575      2.299575      2.299575
        -2.299575     -2.299575      2.299575
 AtomData:  id type       cartes_x      cartes_y      cartes_z           fx          fy          fz
             1    0       0.000000      0.000000      0.000000     0.000000    0.000000    0.000000
 Energy
        -13.887733586000
 PlusStress:  xx          yy          zz          yz          xz          xy
         0.69781     0.69768     0.69786     0.00004    -0.00004     0.00004
 Feature   EFS_by	Qe
 Feature   mindist	3.982974
END_CFG

BEGIN_CFG
 Size
    2
 Supercell
         4.854649      0.000000      0.000000
         0.000000      4.854649      0.000000
         0.000000      0.000000      4.854649
 AtomData:  id type       cartes_x      cartes_y      cartes_z           fx          fy          fz
             1    0       0.338584      4.685767      4.801978    -0.341901    0.209823    0.070027
             2    0       2.088741      2.596205      2.479995     0.341901   -0.209823   -0.070027
 Energy
        -27.975995494900
 PlusStress:  xx          yy          zz          yz          xz          xy
         0.02584     0.45129     0.61075     0.03172    -0.05273    -0.15841
 Feature   EFS_by	Qe
 Feature   mindist	3.580632
END_CFG

BEGIN_CFG
 Size
    2
 Supercell
         5.263461      0.000000      0.000000
         0.000000      5.263461      0.000000
         0.000000      0.000000      5.263461
 AtomData:  id type       cartes_x      cartes_y      cartes_z           fx          fy          fz
             1    0       0.446493      5.079772      5.251606    -0.268178    0.164777    0.011594
             2    0       2.185238      2.815420      2.643586     0.268178   -0.164777   -0.011594
 Energy
        -27.935729582500
 PlusStress:  xx          yy          zz          yz          xz          xy
        -0.55576    -0.16803    -0.04418     0.00750    -0.01272    -0.18235
 Feature   EFS_by	Qe
 Feature   mindist	3.866820
END_CFG

BEGIN_CFG
 Size
    2
 Supercell
         4.956852      0.000000      0.000000
         0.000000      4.956852      0.000000
         0.000000      0.000000      4.956852
 AtomData:  id type       cartes_x      cartes_y      cartes_z           fx          fy          fz
             1    0       0.326008      0.446575      4.827433    -0.395005   -0.435699    0.203869
             2    0       2.152418      2.031851      2.607845     0.395005    0.435699   -0.203869
 Energy
        -27.808995545300
 PlusStress:  xx          yy          zz          yz          xz          xy
         0.28605    -0.10142     0.81844    -0.19066    -0.17545     0.36220
 Feature   EFS_by	Qe
 Feature   mindist	3.282597
END_CFG

BEGIN_CFG
 Size
    1
 Supercell
         2.555087      7.665249      7.665249
        -2.555098      2.555109      2.555109
        -2.555120     -2.555120      2.555131
 AtomData:  id type       cartes_x      cartes_y      cartes_z           fx          fy          fz
             1    0       0.000000      0.000000      0.000000     0.000000    0.000000    0.000000
 Energy
        -13.713634594000
 PlusStress:  xx          yy          zz          yz          xz          xy
        -0.05171    -0.27495    -0.05158     0.00000    -0.09300    -0.00000
 Feature   EFS_by	Qe
 Feature   mindist	4.425572
END_CFG

BEGIN_CFG
 Size
    1
 Supercell
         3.193853      3.193858      3.193864
        -3.193869      3.193875      3.193880
        -3.193886     -3.193891      3.193897
 AtomData:  id type       cartes_x      cartes_y      cartes_z           fx          fy          fz
             1    0       0.000000      0.000000      0.000000     0.000000    0.000000    0.000000
 Energy
        -13.737094482300
 PlusStress:  xx          yy          zz          yz          xz          xy
        -0.61299    -0.61299    -0.61299    -0.00000     0.00000     0.00012
 Feature   EFS_by	Qe
 Feature   mindist	5.531924
END_CFG

BEGIN_CFG
 Size
    2
 Supercell
         4.854649      0.000000      0.000000
         0.000000      4.854649      0.000000
         0.000000      0.000000      4.854649
 AtomData:  id type       cartes_x      cartes_y      cartes_z           fx          fy          fz
             1    0       0.002832      0.658871      4.583707    -0.006766   -0.489635    0.448938
             2    0       2.424492      1.768453      2.698266     0.006766    0.489635   -0.448938
 Energy
        -27.637640141300
 PlusStress:  xx          yy          zz          yz          xz          xy
         1.62584    -0.56737     0.97611    -0.35097    -0.00630     0.00567
 Feature   EFS_by	Qe
 Feature   mindist	3.263510
END_CFG

BEGIN_CFG
 Size
    2
 Supercell
         4.956852      0.000000      0.000000
         0.000000      4.956852      0.000000
         0.000000      0.000000      4.956852
 AtomData:  id type       cartes_x      cartes_y      cartes_z           fx          fy          fz
             1    0       0.385979      4.796194      4.908428    -0.337645    0.188984    0.060517
             2    0       2.092447      2.639083      2.526850     0.337645   -0.188984   -0.060517
 Energy
        -27.971161392200
 PlusStress:  xx          yy          zz          yz          xz          xy
        -0.20106     0.31121     0.44305     0.02818    -0.05200    -0.16304
 Feature   EFS_by	Qe
 Feature   mindist	3.638279
END_CFG

BEGIN_CFG
 Size
    6
 Supercell
         4.854649      0.000000      0.000000
         0.000000      4.854649      0.000000
         0.000000      0.000000     14.563947
 AtomData:  id type       cartes_x      cartes_y      cartes_z           fx          fy          fz
             1    0       0.896640      1.514501      2.460531    -0.137311   -0.166699    0.034094
             2    0       3.339419      3.245532      3.379747     0.048374    0.183626    1.429120
             3    0       0.767974      0.891322      7.170042    -0.022638    0.114795   -0.242811
             4    0       3.073115      4.301230      9.960348     0.100372   -0.005742   -0.024573
             5    0       3.165607      4.650723      1.052033     0.101176    0.003719   -1.443951
             6    0       0.893866      2.387962     12.387164    -0.089974   -0.129700    0.248121
 Energy
        -82.631802180000
 PlusStress:  xx          yy          zz          yz          xz          xy
         3.61851     2.48461     2.08028    -0.61769    -0.08414    -0.20548
 Feature   EFS_by	Qe
 Feature   mindist	2.724523
END_CFG

BEGIN_CFG
 Size
    2
 Supercell
         5.161258      0.000000      0.000000
         0.000000      5.161258      0.000000
         0.000000      0.000000      5.161258
 AtomData:  id type       cartes_x      cartes_y      cartes_z           fx          fy          fz
             1    0       0.153962      1.329375      0.062885    -0.284519    0.034016   -0.126714
             2    0       2.426667      1.251254      2.517744     0.284519   -0.034016    0.126714
 Energy
        -27.530248229500
 PlusStress:  xx          yy          zz          yz          xz          xy
         1.16617    -1.27764     1.33949    -0.00871     0.07940    -0.01957
 Feature   EFS_by	Qe
 Feature   mindist	3.346286
END_CFG

BEGIN_CFG
 Size
    2
 Supercell
         4.854649      0.000000      0.000000
         0.000000      4.854649      0.000000
         0.000000      0.000000      4.854649
 AtomData:  id type       cartes_x      cartes_y      cartes_z           fx          fy          fz
             1    0       0.316574      4.769493      5.024598    -0.327443    0.110792   -0.209002
             2    0       2.110750      2.512480      2.257375     0.327443   -0.110792    0.209002
 Energy
        -27.984397146400
 PlusStress:  xx          yy          zz          yz          xz          xy
         0.07154     0.56012     0.42912    -0.05063     0.15253    -0.08057
 Feature   EFS_by	Qe
 Feature   mindist	3.559568
END_CFG

BEGIN_CFG
 Size
    2
 Supercell
         4.854649      0.000000      0.000000
         0.000000      4.854649      0.000000
         0.000000      0.000000      4.854649
 AtomData:  id type       cartes_x      cartes_y      cartes_z           fx          fy          fz
             1    0       0.269995      4.875220      0.214961    -0.291725   -0.026650   -0.247822
             2    0       2.157329      2.406753      2.212364     0.291725    0.026650    0.247822
 Energy
        -28.001517870200
 PlusStress:  xx          yy          zz          yz          xz          xy
         0.16009     0.55728     0.29256     0.01481     0.16451     0.01754
 Feature   EFS_by	Qe
 Feature   mindist	3.639438
END_CFG

BEGIN_CFG
 Size
    1
 Supercell
         2.555084      2.555089      2.555093
        -2.555102      2.555106      2.555111
        -2.555115     -2.555120      2.555129
 AtomData:  id type       cartes_x      cartes_y      cartes_z           fx          fy          fz
             1    0       0.000000      0.000000      0.000000     0.000000    0.000000    0.000000
 Energy
        -13.988890825100
 PlusStress:  xx          yy          zz          yz          xz          xy
         0.00447     0.00453     0.00447     0.00000     0.00000     0.00000
 Feature   EFS_by	Qe
 Feature   mindist	4.425543
END_CFG

BEGIN_CFG
 Size
    2
 Supercell
         5.365664      0.000000      0.000000
         0.000000      5.365664      0.000000
         0.000000      0.000000      5.365664
 AtomData:  id type       cartes_x      cartes_y      cartes_z           fx          fy          fz
             1    0       0.616359      0.460571      5.204043    -0.404361   -0.425195    0.241151
             2    0       2.066473      2.222261      2.844453     0.404361    0.425195   -0.241151
 Energy
        -27.632566714400
 PlusStress:  xx          yy          zz          yz          xz          xy
        -0.52550    -0.17772     0.57784    -0.28537    -0.27332     0.48650
 Feature   EFS_by	Qe
 Feature   mindist	3.282385
END_CFG

BEGIN_CFG
 Size
    2
 Supercell
         5.161258      0.000000      0.000000
         0.000000      5.161258      0.000000
         0.000000      0.000000      5.161258
 AtomData:  id type       cartes_x      cartes_y      cartes_z           fx          fy          fz
             1    0       0.636669      0.474378      4.783789    -0.641766   -0.696292    0.675364
             2    0       1.943960      2.106251      2.958098     0.641766    0.696292   -0.675364
 Energy
        -27.303670991000
 PlusStress:  xx          yy          zz          yz          xz          xy
        -0.21107     0.46215     0.92556    -0.74139    -0.68243     0.70339
 Feature   EFS_by	Qe
 Feature   mindist	2.775818
END_CFG

BEGIN_CFG
 Size
    2
 Supercell
         4.956852      0.000000      0.000000
         0.000000      4.956852      0.000000
         0.000000      0.000000      4.956852
 AtomData:  id type       cartes_x      cartes_y      cartes_z           fx          fy          fz
             1    0       0.303941      4.838447      4.964015    -0.276022    0.130764   -0.008200
             2    0       2.174485      2.596831      2.471263     0.276022   -0.130764    0.008200
 Energy
        -28.037814321700
 PlusStress:  xx          yy          zz          yz          xz          xy
        -0.13083     0.20084     0.27307    -0.00291     0.00626    -0.10120
 Feature   EFS_by	Qe
 Feature   mindist	3.820415
END_CFG

BEGIN_CFG
 Size
    2
 Supercell
         4.956852      0.000000      0.000000
         0.000000      4.956852      0.000000
         0.000000      0.000000      4.956852
 AtomData:  id type       cartes_x      cartes_y      cartes_z           fx          fy          fz
             1    0       0.000000      0.000000      0.000000     0.000000    0.000000    0.000000
             2    0       2.478426      2.478426      2.478426     0.000000    0.000000    0.000000
 Energy
        -28.139340139000
 PlusStress:  xx          yy          zz          yz          xz          xy
        -0.00134    -0.00134    -0.00134     0.00000     0.00000     0.00000
 Feature   EFS_by	Qe
 Feature   mindist	4.292760
END_CFG

BEGIN_CFG
 Size
    2
 Supercell
         4.854649      0.000000      0.000000
         0.000000      4.854649      0.000000
         0.000000      0.000000      4.854649
 AtomData:  id type       cartes_x      cartes_y      cartes_z           fx          fy          fz
             1    0       4.353610      4.707118     -0.017499     0.425376    0.212162    0.026964
             2    0       2.928363      2.574855      2.444823    -0.425376   -0.212162   -0.026964
 Energy
        -27.862014618000
 PlusStress:  xx          yy          zz          yz          xz          xy
        -0.29056     0.77820     0.93588     0.01156     0.02259     0.17690
 Feature   EFS_by	Qe
 Feature   mindist	3.507293
END_CFG

BEGIN_CFG
 Size
    2
 Supercell
         4.956852      0.000000      0.000000
         0.000000      4.956852      0.000000
         0.000000      0.000000      4.956852
 AtomData:  id type       cartes_x      cartes_y      cartes_z           fx          fy          fz
             1    0       0.514650      0.502860      4.594755    -0.679837   -0.681714    0.651138
             2    0       1.963776      1.975566      2.840523     0.679837    0.681714   -0.651138
 Energy
        -27.315222360500
 PlusStress:  xx          yy          zz          yz          xz          xy
         0.28213     0.33950     1.06524    -0.61581    -0.61391     0.63975
 Feature   EFS_by	Qe
 Feature   mindist	2.710379
END_CFG

BEGIN_CFG
 Size
    2
 Supercell
         5.365664      0.000000      0.000000
         0.000000      5.365664      0.000000
         0.000000      0.000000      5.365664
 AtomData:  id type       cartes_x      cartes_y      cartes_z           fx          fy          fz
             1    0       5.291387      1.160258      5.054995     0.152486   -0.141961    0.466085
             2    0       2.757109      1.522574      2.993502    -0.152486    0.141961   -0.466085
 Energy
        -27.473773718900
 PlusStress:  xx          yy          zz          yz          xz          xy
         1.20121    -1.15483     0.56763    -0.15460     0.16751    -0.05049
 Feature   EFS_by	Qe
 Feature   mindist	3.286882
END_CFG

BEGIN_CFG
 Size
    2
 Supercell
         5.007954      0.000000      0.000000
         0.000000      5.007954      0.000000
         0.000000      0.000000      5.007959
 AtomData:  id type       cartes_x      cartes_y      cartes_z           fx          fy          fz
             1    0       0.000000      0.000000      0.000000     0.000000    0.000000    0.000000
             2    0       2.503977      2.503978      2.503994     0.000000    0.000000    0.000000
 Energy
        -27.979489300800
 PlusStress:  xx          yy          zz          yz          xz          xy
         0.21634     0.21634     0.21634     0.00000     0.00000     0.00000
 Feature   EFS_by	Qe
 Feature   mindist	4.337007
END_CFG

BEGIN_CFG
 Size
    6
 Supercell
         5.365664      0.000000      0.000000
         0.000000      5.365664      0.000000
         0.000000      0.000000     16.096991
 AtomData:  id type       cartes_x      cartes_y      cartes_z           fx          fy          fz