BEGIN_CFG
 Size
    4
 Supercell
         5.365664      0.000000      0.000000
         0.000000      5.365664      0.000000
         0.000000      0.000000     10.731328
 AtomData:  id type       cartes_x      cartes_y      cartes_z           fx          fy          fz
             1    0       0.095433      2.774376      1.957275     0.016897   -0.067719   -0.135209
             2    0       2.817106      5.361564      2.879570    -0.086672    0.069917   -0.303095
             3    0       5.153833      5.288922      5.832027     0.237118    0.052643    0.220607
             4    0       2.664957      2.672132      5.428121    -0.167344   -0.054841    0.217697
 Energy
        -55.302384864000
 PlusStress:  xx          yy          zz          yz          xz          xy
         1.65722     2.10684     0.84024     0.07631     0.26013     0.00113
 Feature   EFS_by	Qe
 Feature   mindist	3.633901
END_CFG

BEGIN_CFG
 Size
    2
 Supercell
         5.161258      0.000000      0.000000
         0.000000      5.161258      0.000000
         0.000000      0.000000      5.161258
 AtomData:  id type       cartes_x      cartes_y      cartes_z           fx          fy          fz
             1    0      -0.008002      0.748995      5.160415     0.011268   -0.317879    0.001190
             2    0       2.588631      1.831634      2.581472    -0.011268    0.317879   -0.001190
 Energy
        -27.784688022400
 PlusStress:  xx          yy          zz          yz          xz          xy
         0.59684    -0.83833     0.59735    -0.00101     0.00000    -0.00972
 Feature   EFS_by	Qe
 Feature   mindist	3.794780
END_CFG

BEGIN_CFG
 Size
    4
 Supercell
         5.365664      0.000000      0.000000
         0.000000      5.365664      0.000000
         0.000000      0.000000     10.731328
 AtomData:  id type       cartes_x      cartes_y      cartes_z           fx          fy          fz
             1    0       3.258031      3.776692      3.337068     0.885811    0.892932    0.574897
             2    0       1.071911      2.160449      2.957582    -0.911479   -1.138949    0.291216
             3    0       4.327135      1.351156      9.531082     0.218923   -0.303342   -0.148390
             4    0       2.074252      3.443032      0.271260    -0.193255    0.549358   -0.717723
 Energy
        -54.291015061800
 PlusStress:  xx          yy          zz          yz          xz          xy
         2.47079     0.67117     1.80643     0.11574    -0.04510     0.93555
 Feature   EFS_by	Qe
 Feature   mindist	2.745063
END_CFG

BEGIN_CFG
 Size
    1
 Supercell
         2.555084      2.555089      2.555093
        -2.555102      2.555106      2.555111
        -2.555115     -2.555120      2.555129
 AtomData:  id type       cartes_x      cartes_y      cartes_z           fx          fy          fz
             1    0       0.000000      0.000000      0.000000     0.000000    0.000000    0.000000
 Energy
        -13.988890825100
 PlusStress:  xx          yy          zz          yz          xz          xy
         0.00447     0.00453     0.00447     0.00000     0.00000     0.00000
 Feature   EFS_by	Qe
 Feature   mindist	4.425543
END_CFG

BEGIN_CFG
 Size
    2
 Supercell
         5.416770      0.000000      0.000000
         0.000000      5.416770      0.000000
         0.000000      0.000000      5.416775
 AtomData:  id type       cartes_x      cartes_y      cartes_z           fx          fy          fz
             1    0       0.000000      0.000000      0.000000     0.000000    0.000000    0.000000
             2    0       2.708385      2.708386      2.708403     0.000000    0.000000    0.000000
 Energy
        -27.940525045000
 PlusStress:  xx          yy          zz          yz          xz          xy
        -0.49163    -0.49163    -0.49163     0.00000     0.00000     0.00000
 Feature   EFS_by	Qe
 Feature   mindist	4.691052
END_CFG

BEGIN_CFG
 Size
    1
 Supercell
         2.427325      2.427325      2.427325
        -2.427329      2.427329      2.427329
        -2.427329     -2.427329      2.427329
 AtomData:  id type       cartes_x      cartes_y      cartes_z           fx          fy          fz
             1    0       0.000000      0.000000      0.000000     0.000000    0.000000    0.000000
 Energy
        -13.966802118600
 PlusStress:  xx          yy          zz          yz          xz          xy
         0.29598     0.29608     0.29603     0.00005     0.00000    -0.00000
 Feature   EFS_by	Qe
 Feature   mindist	4.204251
END_CFG

BEGIN_CFG
 Size
    2
 Supercell
         5.365664      0.000000      0.000000
         0.000000      5.365664      0.000000
         0.000000      0.000000      5.365664
 AtomData:  id type       cartes_x      cartes_y      cartes_z           fx          fy          fz
             1    0       4.717341     -0.004190      0.012809     0.261743    0.004269   -0.013237
             2    0       3.331155      2.687023      2.670023    -0.261743   -0.004269    0.013237
 Energy
        -27.850291952900
 PlusStress:  xx          yy          zz          yz          xz          xy
        -0.77911     0.00057     0.00014    -0.00028    -0.01475     0.00482
 Feature   EFS_by	Qe
 Feature   mindist	4.016838
END_CFG

BEGIN_CFG
 Size
    2
 Supercell
         5.212364      0.000000      0.000000
         0.000000      5.212364      0.000000
         0.000000      0.000000      5.212370
 AtomData:  id type       cartes_x      cartes_y      cartes_z           fx          fy          fz
             1    0       0.000000      0.000000      0.000000     0.000000    0.000000    0.000000
             2    0       2.606183      2.606183      2.606200     0.000000    0.000000    0.000000
 Energy
        -27.980363602600
 PlusStress:  xx          yy          zz          yz          xz          xy
        -0.18138    -0.18138    -0.18138     0.00000     0.00000     0.00000
 Feature   EFS_by	Qe
 Feature   mindist	4.514032
END_CFG

BEGIN_CFG
 Size
    2
 Supercell
         5.365664      0.000000      0.000000
         0.000000      5.365664      0.000000
         0.000000      0.000000      5.365664
 AtomData:  id type       cartes_x      cartes_y      cartes_z           fx          fy          fz
             1    0       5.157539      0.663768      4.968925     0.302212   -0.396786    0.424483
             2    0       2.890957      2.019065      3.079572    -0.302212    0.396786   -0.424483
 Energy
        -27.623611039100
 PlusStress:  xx          yy          zz          yz          xz          xy
         0.51543    -0.60181     0.01262    -0.46735     0.35062    -0.33105
 Feature   EFS_by	Qe
 Feature   mindist	3.247134
END_CFG

BEGIN_CFG
 Size
    1
 Supercell
         2.171817      2.171817      2.171817
        -2.171821      2.171821      2.171821
        -2.171821     -2.171821      2.171821
 AtomData:  id type       cartes_x      cartes_y      cartes_z           fx          fy          fz
             1    0       0.000000      0.000000      0.000000     0.000000    0.000000    0.000000
 Energy
        -13.722442783600
 PlusStress:  xx          yy          zz          yz          xz          xy
         1.25686     1.25705     1.25693     0.00008     0.00004    -0.00000
 Feature   EFS_by	Qe
 Feature   mindist	3.761698
END_CFG

BEGIN_CFG
 Size
    2
 Supercell
         4.854649      0.000000      0.000000
         0.000000      4.854649      0.000000
         0.000000      0.000000      4.854649
 AtomData:  id type       cartes_x      cartes_y      cartes_z           fx          fy          fz
             1    0       4.781526      0.666000      4.643317     0.154232   -0.470430    0.366937
             2    0       2.500447      1.761324      2.638656    -0.154232    0.470430   -0.366937
 Energy
        -27.667595931700
 PlusStress:  xx          yy          zz          yz          xz          xy
         1.47016    -0.61201     1.12024    -0.28426     0.11849    -0.12354
 Feature   EFS_by	Qe
 Feature   mindist	3.228269
END_CFG

BEGIN_CFG
 Size
    2
 Supercell
         4.854649      0.000000      0.000000
         0.000000      4.854649      0.000000
         0.000000      0.000000      4.854649
 AtomData:  id type       cartes_x      cartes_y      cartes_z           fx          fy          fz
             1    0       0.000000      0.000000      0.000000     0.000000    0.000000    0.000000
             2    0       2.427324      2.427324      2.427324     0.000000    0.000000    0.000000
 Energy
        -28.133109139800
 PlusStress:  xx          yy          zz          yz          xz          xy
         0.21083     0.21083     0.21083     0.00000     0.00000     0.00000
 Feature   EFS_by	Qe
 Feature   mindist	4.204248
END_CFG

BEGIN_CFG
 Size
    1
 Supercell
         2.299571      2.299571      2.299571
        -2.299575      2.299575      2.299575
        -2.299575     -2.299575      2.299575
 AtomData:  id type       cartes_x      cartes_y      cartes_z           fx          fy          fz
             1    0       0.000000      0.000000      0.000000     0.000000    0.000000    0.000000
 Energy
        -13.887733586000
 PlusStress:  xx          yy          zz          yz          xz          xy
         0.69781     0.69768     0.69786     0.00004    -0.00004     0.00004
 Feature   EFS_by	Qe
 Feature   mindist	3.982974
END_CFG

BEGIN_CFG
 Size
    2
 Supercell
         4.854649      0.000000      0.000000
         0.000000      4.854649      0.000000
         0.000000      0.000000      4.854649
 AtomData:  id type       cartes_x      cartes_y      cartes_z           fx          fy          fz
             1    0       4.760247      0.856791      4.639163     0.260394   -0.399990    0.471185
             2    0       2.521726      1.570534      2.642810    -0.260394    0.399990   -0.471185
 Energy
        -27.485615433800
 PlusStress:  xx          yy          zz          yz          xz          xy
         2.01200    -1.04587     1.60241    -0.26661     0.24550    -0.15180
 Feature   EFS_by	Qe
 Feature   mindist	3.083152
END_CFG

BEGIN_CFG
 Size
    1
 Supercell
         3.193853      3.193858      3.193864
        -3.193869      3.193875      3.193880
        -3.193886     -3.193891      3.193897
 AtomData:  id type       cartes_x      cartes_y      cartes_z           fx          fy          fz
             1    0       0.000000      0.000000      0.000000     0.000000    0.000000    0.000000
 Energy
        -13.737094482300
 PlusStress:  xx          yy          zz          yz          xz          xy
        -0.61299    -0.61299    -0.61299    -0.00000     0.00000     0.00012
 Feature   EFS_by	Qe
 Feature   mindist	5.531924
END_CFG

BEGIN_CFG
 Size
    4
 Supercell
         5.263461      0.000000      0.000000
         0.000000      5.263461      0.000000
         0.000000      0.000000     10.526922
 AtomData:  id type       cartes_x      cartes_y      cartes_z           fx          fy          fz
             1    0       2.370562      2.871493      4.692364     0.120271    0.261357   -0.389964
             2    0       5.185952      0.771370      5.494856    -0.047853   -0.411489   -0.473997
             3    0       2.910146      4.651007      7.772724    -0.256518    0.066092    0.282312
             4    0       0.060262      2.233053      8.357361     0.184100    0.084040    0.581649
 Energy
        -54.933131661800
 PlusStress:  xx          yy          zz          yz          xz          xy
         2.51409     2.17429     2.14725     0.18262    -0.15156     0.38077
 Feature   EFS_by	Qe
 Feature   mindist	3.217053
END_CFG

BEGIN_CFG
 Size
    2
 Supercell
         5.263461      0.000000      0.000000
         0.000000      5.263461      0.000000
         0.000000      0.000000      5.263461
 AtomData:  id type       cartes_x      cartes_y      cartes_z           fx          fy          fz
             1    0       0.216850     -0.058610      0.003754    -0.139386    0.042539   -0.002717
             2    0       2.414881      2.690340      2.627977     0.139386   -0.042539    0.002717
 Energy
        -28.055315596700
 PlusStress:  xx          yy          zz          yz          xz          xy
        -0.51144    -0.40835    -0.39898    -0.00067     0.00214    -0.03267
 Feature   EFS_by	Qe
 Feature   mindist	4.247429
END_CFG

BEGIN_CFG
 Size
    1
 Supercell
         2.299571      2.299571      2.299571
        -2.299575      2.299575      2.299575
        -2.299575     -2.299575      2.299575
 AtomData:  id type       cartes_x      cartes_y      cartes_z           fx          fy          fz
             1    0       0.000000      0.000000      0.000000     0.000000    0.000000    0.000000
 Energy
        -13.887733586000
 PlusStress:  xx          yy          zz          yz          xz          xy
         0.69781     0.69768     0.69786     0.00004    -0.00004     0.00004
 Feature   EFS_by	Qe
 Feature   mindist	3.982974
END_CFG

BEGIN_CFG
 Size
    2
 Supercell
         5.059055      0.000000      0.000000
         0.000000      5.059055      0.000000
         0.000000      0.000000      5.059055
 AtomData:  id type       cartes_x      cartes_y      cartes_z           fx          fy          fz
             1    0       0.287351      0.336496      0.342287    -0.344852   -0.373485   -0.376246
             2    0       2.242177      2.193032      2.187241     0.344852    0.373485    0.376246
 Energy
        -27.825269314700
 PlusStress:  xx          yy          zz          yz          xz          xy
         0.25013     0.11235     0.09606     0.34179     0.31600     0.31362
 Feature   EFS_by	Qe
 Feature   mindist	3.266791
END_CFG

BEGIN_CFG
 Size
    1
 Supercell
         2.555086      3.066094      3.066094
        -2.555101      2.555106      2.555111
        -2.555116     -2.555121      2.555126
 AtomData:  id type       cartes_x      cartes_y      cartes_z           fx          fy          fz
             1    0       0.000000      0.000000      0.000000     0.000000    0.000000    0.000000
 Energy
        -13.970625454400
 PlusStress:  xx          yy          zz          yz          xz          xy
        -0.13087    -0.14496    -0.11227    -0.08875    -0.10358    -0.07029
 Feature   EFS_by	Qe
 Feature   mindist	4.425574
END_CFG

BEGIN_CFG
 Size
    2
 Supercell
         5.365664      0.000000      0.000000
         0.000000      5.365664      0.000000
         0.000000      0.000000      5.365664
 AtomData:  id type       cartes_x      cartes_y      cartes_z           fx          fy          fz
             1    0       5.300772      0.347138      5.272864     0.047596   -0.187689    0.067348
             2    0       2.747724      2.335694      2.775632    -0.047596    0.187689   -0.067348
 Energy
        -27.980262376300
 PlusStress:  xx          yy          zz          yz          xz          xy
        -0.40849    -0.63599    -0.41998    -0.07375     0.01816    -0.05220
 Feature   EFS_by	Qe
 Feature   mindist	4.087612
END_CFG

BEGIN_CFG
 Size
    2
 Supercell
         5.007954      0.000000      0.000000
         0.000000      5.007954      0.000000
         0.000000      0.000000      5.007959
 AtomData:  id type       cartes_x      cartes_y      cartes_z           fx          fy          fz
             1    0       0.000000      0.000000      0.000000     0.000000    0.000000    0.000000
             2    0       2.503977      2.503978      2.503994     0.000000    0.000000    0.000000
 Energy
        -27.979489300800
 PlusStress:  xx          yy          zz          yz          xz          xy
         0.21634     0.21634     0.21634     0.00000     0.00000     0.00000
 Feature   EFS_by	Qe
 Feature   mindist	4.337007
END_CFG

BEGIN_CFG
 Size
    1
 Supercell
         2.555083      5.110166      5.110174
        -2.555099      2.555106      2.555114
        -2.555114     -2.555122      2.555129
 AtomData:  id type       cartes_x      cartes_y      cartes_z           fx          fy          fz
             1    0       0.000000      0.000000      0.000000     0.000000    0.000000    0.000000
 Energy
        -13.814578087700
 PlusStress:  xx          yy          zz          yz          xz          xy
        -0.27899    -0.22707    -0.24325     0.00009    -0.26438     0.00000
 Feature   EFS_by	Qe
 Feature   mindist	4.425574
END_CFG

BEGIN_CFG
 Size
    2
 Supercell
         5.263461      0.000000      0.000000
         0.000000      5.263461      0.000000
         0.000000      0.000000      5.263461
 AtomData:  id type       cartes_x      cartes_y      cartes_z           fx          fy          fz
             1    0       0.036100     -0.016447     -0.009963    -0.023889    0.010832    0.006638
             2    0       2.595631      2.648178      2.641693     0.023889   -0.010832   -0.006638
 Energy
        -28.087277546500
 PlusStress:  xx          yy          zz          yz          xz          xy
        -0.49551    -0.49310    -0.49283     0.00040    -0.00094    -0.00161
 Feature   EFS_by	Qe
 Feature   mindist	4.486276
END_CFG

BEGIN_CFG
 Size
    4
 Supercell
         5.365664      0.000000      0.000000
         0.000000      5.365664      0.000000
         0.000000      0.000000     10.731328
 AtomData:  id type       cartes_x      cartes_y      cartes_z           fx          fy          fz
             1    0       3.258031      3.776692      3.337068     0.885811    0.892932    0.574897
             2    0       1.071911      2.160449      2.957582    -0.911479   -1.138949    0.291216
             3    0       4.327135      1.351156      9.531082     0.218923   -0.303342   -0.148390
             4    0       2.074252      3.443032      0.271260    -0.193255    0.549358   -0.717723
 Energy
        -54.291015061800
 PlusStress:  xx          yy          zz          yz          xz          xy
         2.47079     0.67117     1.80643     0.11574    -0.04510     0.93555
 Feature   EFS_by	Qe
 Feature   mindist	2.745063
END_CFG

BEGIN_CFG
 Size
    2
 Supercell
         4.854649      0.000000      0.000000
         0.000000      4.854649      0.000000
         0.000000      0.000000      4.854649
 AtomData:  id type       cartes_x      cartes_y      cartes_z           fx          fy          fz
             1    0       4.607796      4.817828      4.842266     0.253065    0.043824    0.014785
             2    0       2.674177      2.464145      2.439707    -0.253065   -0.043824   -0.014785
 Energy
        -28.066993635100
 PlusStress:  xx          yy          zz          yz          xz          xy
         0.07437     0.37618     0.38311     0.00158     0.00924     0.02731
 Feature   EFS_by	Qe
 Feature   mindist	3.879561
END_CFG

BEGIN_CFG
 Size
    1
 Supercell
         2.044064      2.044064      2.044064
        -2.044067      2.044067      2.044067
        -2.044067     -2.044067      2.044067
 AtomData:  id type       cartes_x      cartes_y      cartes_z           fx          fy          fz
             1    0       0.000000      0.000000      0.000000     0.000000    0.000000    0.000000
 Energy
        -13.426178274100
 PlusStress:  xx          yy          zz          yz          xz          xy
         2.03698     2.03698     2.03695     0.00000     0.00006     0.00006
 Feature   EFS_by	Qe
 Feature   mindist	3.540422
END_CFG

BEGIN_CFG
 Size
    1
 Supercell
         2.555087      4.088125      4.088131
        -2.555099      2.555106      2.555112
        -2.555118     -2.555118      2.555125
 AtomData:  id type       cartes_x      cartes_y      cartes_z           fx          fy          fz
             1    0       0.000000      0.000000      0.000000     0.000000    0.000000    0.000000
 Energy
        -13.889475250800
 PlusStress:  xx          yy          zz          yz          xz          xy
        -0.30208    -0.23192    -0.21926    -0.05193    -0.23335    -0.01107
 Feature   EFS_by	Qe
 Feature   mindist	4.425573
END_CFG

BEGIN_CFG
 Size
    2
 Supercell
         5.059055      0.000000      0.000000
         0.000000      5.059055      0.000000
         0.000000      0.000000      5.059055
 AtomData:  id type       cartes_x      cartes_y      cartes_z           fx          fy          fz
             1    0       4.656473     -0.017270      0.020920     0.297780    0.019027   -0.023043
             2    0       2.932109      2.546798      2.508608    -0.297780   -0.019027    0.023043
 Energy
        -28.002745103700
 PlusStress:  xx          yy          zz          yz          xz          xy
        -0.39624     0.17226     0.17155    -0.00131    -0.02164     0.01783
 Feature   EFS_by	Qe
 Feature   mindist	3.922624
END_CFG

BEGIN_CFG
 Size
    2
 Supercell
         5.621175      0.000000      0.000000
         0.000000      5.621175      0.000000
         0.000000      0.000000      5.621180
 AtomData:  id type       cartes_x      cartes_y      cartes_z           fx          fy          fz
             1    0       0.000000      0.000000      0.000000     0.000000    0.000000    0.000000
             2    0       2.810588      2.810589      2.810607     0.000000    0.000000    0.000000
 Energy
        -27.871577107300
 PlusStress:  xx          yy          zz          yz          xz          xy
        -0.73386    -0.73386    -0.73386     0.00000     0.00000     0.00000
 Feature   EFS_by	Qe
 Feature   mindist	4.868071
END_CFG

BEGIN_CFG
 Size
    2
 Supercell
         5.161258      0.000000      0.000000
         0.000000      5.161258      0.000000
         0.000000      0.000000      5.161258
 AtomData:  id type       cartes_x      cartes_y      cartes_z           fx          fy          fz
             1    0       4.268960      4.772568      0.028280     0.368334    0.576666   -0.076635
             2    0       3.472927      2.969319      2.552349    -0.368334   -0.576666    0.076635
 Energy
        -27.467250469400
 PlusStress:  xx          yy          zz          yz          xz          xy
        -0.97543     0.53322     1.66809    -0.09089    -0.05327     0.39108
 Feature   EFS_by	Qe
 Feature   mindist	3.202545
END_CFG

BEGIN_CFG
 Size
    2
 Supercell
         4.956852      0.000000      0.000000
         0.000000      4.956852      0.000000
         0.000000      0.000000      4.956852
 AtomData:  id type       cartes_x      cartes_y      cartes_z           fx          fy          fz
             1    0       0.447295      0.415730      4.691387    -0.576804   -0.573027    0.492472
             2    0       2.031131      2.062696      2.743890     0.576804    0.573027   -0.492472
 Energy
        -27.628741201700
 PlusStress:  xx          yy          zz          yz          xz          xy
         0.23975     0.37025     0.99523    -0.50097    -0.50097     0.56661
 Feature   EFS_by	Qe
 Feature   mindist	3.002295
END_CFG

BEGIN_CFG
 Size
    1
 Supercell
         1.916316      1.916319      1.916326
        -1.916329      1.916336      1.916342
        -1.916346     -1.916352      1.916356
 AtomData:  id type       cartes_x      cartes_y      cartes_z           fx          fy          fz
             1    0       0.000000      0.000000      0.000000     0.000000    0.000000    0.000000
 Energy
        -12.934274239300
 PlusStress:  xx          yy          zz          yz          xz          xy
         3.07321     3.07300     3.07303     0.00000    -0.00003     0.00008
 Feature   EFS_by	Qe
 Feature   mindist	3.319164
END_CFG

BEGIN_CFG
 Size
    2
 Supercell
         4.956852      0.000000      0.000000
         0.000000      4.956852      0.000000
         0.000000      0.000000      4.956852
 AtomData:  id type       cartes_x      cartes_y      cartes_z           fx          fy          fz
             1    0      -0.139916     -0.017982     -0.007936     0.133950    0.018154    0.008052
             2    0       2.618342      2.496408      2.486361    -0.133950   -0.018154   -0.008052
 Energy
        -28.120049307100
 PlusStress:  xx          yy          zz          yz          xz          xy
        -0.03377     0.04987     0.05122     0.00056     0.00347     0.00772
 Feature   EFS_by	Qe
 Feature   mindist	4.106533
END_CFG

BEGIN_CFG
 Size
    4
 Supercell
         5.365664      0.000000      0.000000
         0.000000      5.365664      0.000000
         0.000000      0.000000     10.731328
 AtomData:  id type       cartes_x      cartes_y      cartes_z           fx          fy          fz
             1    0       3.369578      3.531937      3.176240     0.003028    0.021896    0.029372
             2    0       0.711215      0.835314      3.105719     0.048901   -0.023685    0.114231
             3    0       4.759363      1.789923     10.454636    -0.186932    0.095085   -0.061482
             4    0       1.891173      4.574154     10.091725     0.135002   -0.093296   -0.082120
 Energy
        -55.301489609400
 PlusStress:  xx          yy          zz          yz          xz          xy
         1.56304     1.59509    -0.20822     0.02950     0.12425    -0.37757
 Feature   EFS_by	Qe
 Feature   mindist	3.610107
END_CFG

BEGIN_CFG
 Size
    4
 Supercell
         5.365664      0.000000      0.000000
         0.000000      5.365664      0.000000
         0.000000      0.000000     10.731328
 AtomData:  id type       cartes_x      cartes_y      cartes_z           fx          fy          fz
             1    0       2.857488      2.704396      3.483714    -0.119624    0.003687   -0.088970
             2    0       5.395522      5.392376      3.564496     0.110816   -0.005566   -0.053422
             3    0       5.265652      2.640600      9.885530     0.003511    0.029739    0.067822
             4    0       2.578330      5.359621      9.894580     0.005297   -0.027860    0.074570
 Energy
        -55.316416959400
 PlusStress:  xx          yy          zz          yz          xz          xy
         1.60587     1.64105    -2.06996    -0.00794    -0.02525    -0.00312
 Feature   EFS_by	Qe
 Feature   mindist	3.690275
END_CFG

BEGIN_CFG
 Size
    1
 Supercell
         2.938341      2.938341      2.938341
        -2.938341      2.938346      2.938346
        -2.938346     -2.938346      2.938346
 AtomData:  id type       cartes_x      cartes_y      cartes_z           fx          fy          fz
             1    0       0.000000      0.000000      0.000000     0.000000    0.000000    0.000000
 Energy
        -13.875878673600
 PlusStress:  xx          yy          zz          yz          xz          xy
        -0.47806    -0.47806    -0.47797     0.00000     0.00000    -0.00000
 Feature   EFS_by	Qe
 Feature   mindist	5.089356
END_CFG

BEGIN_CFG
 Size
    2
 Supercell
         4.854649      0.000000      0.000000
         0.000000      4.854649      0.000000
         0.000000      0.000000      4.854649
 AtomData:  id type       cartes_x      cartes_y      cartes_z           fx          fy          fz
             1    0       0.325244      0.323304      4.862217    -0.366694   -0.365585   -0.011349
             2    0       2.102080      2.104020      2.419756     0.366694    0.365585    0.011349
 Energy
        -27.899144690300
 PlusStress:  xx          yy          zz          yz          xz          xy
         0.21199     0.21808     0.84092     0.00861     0.00861     0.27292
 Feature   EFS_by	Qe
 Feature   mindist	3.485218
END_CFG

BEGIN_CFG
 Size
    2
 Supercell
         4.854649      0.000000      0.000000
         0.000000      4.854649      0.000000
         0.000000      0.000000      4.854649
 AtomData:  id type       cartes_x      cartes_y      cartes_z           fx          fy          fz
             1    0       0.132164      4.955843      4.772859    -0.145600   -0.113593    0.092649
             2    0       2.295160      2.326130      2.509114     0.145600    0.113593   -0.092649
 Energy
        -28.095191025700
 PlusStress:  xx          yy          zz          yz          xz          xy
         0.21934     0.25653     0.27575    -0.02668    -0.03435     0.04202
 Feature   EFS_by	Qe
 Feature   mindist	3.841019
END_CFG

BEGIN_CFG
 Size
    2
 Supercell
         5.365664      0.000000      0.000000
         0.000000      5.365664      0.000000
         0.000000      0.000000      5.365664
 AtomData:  id type       cartes_x      cartes_y      cartes_z           fx          fy          fz
             1    0       5.416625      4.982884      0.368918    -0.049153    0.256052   -0.252796
             2    0       2.631871      3.065612      2.313914     0.049153   -0.256052    0.252796
 Energy
        -27.875894329700
 PlusStress:  xx          yy          zz          yz          xz          xy
        -0.08099    -0.47203    -0.45175    -0.28793     0.05376    -0.05447
 Feature   EFS_by	Qe
 Feature   mindist	3.757664
END_CFG

BEGIN_CFG
 Size
    2
 Supercell
         5.161258      0.000000      0.000000
         0.000000      5.161258      0.000000
         0.000000      0.000000      5.161258
 AtomData:  id type       cartes_x      cartes_y      cartes_z           fx          fy          fz
             1    0       4.268960      4.772568      0.028280     0.368334    0.576666   -0.076635
             2    0       3.472927      2.969319      2.552349    -0.368334   -0.576666    0.076635
 Energy
        -27.467250469400
 PlusStress:  xx          yy          zz          yz          xz          xy
        -0.97543     0.53322     1.66809    -0.09089    -0.05327     0.39108
 Feature   EFS_by	Qe
 Feature   mindist	3.202545
END_CFG

BEGIN_CFG
 Size
    2
 Supercell
         4.599143      0.000000      0.000000
         0.000000      4.599143      0.000000
         0.000000      0.000000      4.599148
 AtomData:  id type       cartes_x      cartes_y      cartes_z           fx          fy          fz
             1    0       0.000000      0.000000      0.000000     0.000000    0.000000    0.000000
             2    0       2.299572      2.299573      2.299588     0.000000    0.000000    0.000000
 Energy
        -27.785832669300
 PlusStress:  xx          yy          zz          yz          xz          xy