BEGIN_CFG
 Size
    2
 Supercell
         4.854649      0.000000      0.000000
         0.000000      4.854649      0.000000
         0.000000      0.000000      4.854649
 AtomData:  id type       cartes_x      cartes_y      cartes_z           fx          fy          fz
             1    0       0.440154      0.507966      4.538685    -0.672849   -0.670486    0.615834
             2    0       1.987170      1.919358      2.743288     0.672849    0.670486   -0.615834
 Energy
        -27.390906204800
 PlusStress:  xx          yy          zz          yz          xz          xy
         0.62546     0.27985     1.28138    -0.55791    -0.56495     0.60077
 Feature   EFS_by	Qe
 Feature   mindist	2.758394
END_CFG

BEGIN_CFG
 Size
    6
 Supercell
         4.854649      0.000000      0.000000
         0.000000      4.854649      0.000000
         0.000000      0.000000     14.563947
 AtomData:  id type       cartes_x      cartes_y      cartes_z           fx          fy          fz
             1    0       2.648972      0.780532      1.545382    -0.016088    0.318033    0.424485
             2    0       4.710021      3.104171      4.161046     0.078626   -0.021803    0.177269
             3    0       2.432454      0.087230      8.063861    -0.113794    0.082559   -0.233882
             4    0       4.416448      2.903376     10.659698     0.443940    0.277417   -0.442648
             5    0       0.291827      4.121871     14.312491    -0.086542   -0.487726   -0.041924
             6    0       2.491548      1.139442     12.231333    -0.306142   -0.168478    0.116700
 Energy
        -83.481754856600
 PlusStress:  xx          yy          zz          yz          xz          xy
         2.33145     0.95899     2.44616    -0.34351    -0.05011     0.48469
 Feature   EFS_by	Qe
 Feature   mindist	3.047415
END_CFG

BEGIN_CFG
 Size
    4
 Supercell
         5.059055      0.000000      0.000000
         0.000000      5.059055      0.000000
         0.000000      0.000000     10.118110
 AtomData:  id type       cartes_x      cartes_y      cartes_z           fx          fy          fz
             1    0       2.837724      2.464355      3.195133    -0.105772   -0.020023   -0.360063
             2    0       0.170713      0.020793     10.007067    -0.094851    0.018946    0.133401
             3    0       0.053624      4.957810      4.830253    -0.010010    0.085409    0.123620
             4    0       1.996995      2.675152      7.262821     0.210633   -0.084332    0.103041
 Energy
        -56.008532032200
 PlusStress:  xx          yy          zz          yz          xz          xy
        -0.18166     0.21589     0.07228    -0.00404     0.05492    -0.07751
 Feature   EFS_by	Qe
 Feature   mindist	3.750514
END_CFG

BEGIN_CFG
 Size
    4
 Supercell
         5.365664      0.000000      0.000000
         0.000000      5.365664      0.000000
         0.000000      0.000000     10.731328
 AtomData:  id type       cartes_x      cartes_y      cartes_z           fx          fy          fz
             1    0       0.243780      5.183053      3.347321     0.039958    0.096733   -0.027189
             2    0       2.960560      2.592270      3.295193    -0.088564   -0.075164   -0.009728
             3    0       5.049432      2.760725     10.490662     0.116929    0.063725    0.101889
             4    0       2.477556      0.195281      9.695144    -0.068323   -0.085295   -0.064973
 Energy
        -55.394925753700
 PlusStress:  xx          yy          zz          yz          xz          xy
         1.44928     1.40106    -1.14490     0.14808    -0.11007     0.06439
 Feature   EFS_by	Qe
 Feature   mindist	3.705598
END_CFG

BEGIN_CFG
 Size
    6
 Supercell
         4.956852      0.000000      0.000000
         0.000000      4.956852      0.000000
         0.000000      0.000000     14.870556
 AtomData:  id type       cartes_x      cartes_y      cartes_z           fx          fy          fz
             1    0       4.019957      3.123331      2.470060     0.073134    0.489613    0.287817
             2    0       1.759806      0.746222      3.715707    -0.077152   -0.297765    0.807584
             3    0       4.333400      3.131134      7.022276    -0.038518   -0.037572   -0.099578
             4    0       1.612650      0.372112      9.889393     0.044059    0.070208    0.123840
             5    0       1.459171      1.760309      0.653929     0.106799   -0.499679   -0.615880
             6    0       4.163997      3.259022     13.425023    -0.108323    0.275196   -0.503782
 Energy
        -83.298275011400
 PlusStress:  xx          yy          zz          yz          xz          xy
         2.09167     0.27442     2.41674    -0.57533     0.20732    -0.16572
 Feature   EFS_by	Qe
 Feature   mindist	3.239327
END_CFG

BEGIN_CFG
 Size
    2
 Supercell
         4.956852      0.000000      0.000000
         0.000000      4.956852      0.000000
         0.000000      0.000000      4.956852
 AtomData:  id type       cartes_x      cartes_y      cartes_z           fx          fy          fz
             1    0      -0.114441     -0.006197     -0.002842     0.110219    0.006125    0.002861
             2    0       2.592866      2.484623      2.481268    -0.110219   -0.006125   -0.002861
 Energy
        -28.126608475700
 PlusStress:  xx          yy          zz          yz          xz          xy
        -0.02371     0.03321     0.03344     0.00011     0.00101     0.00212
 Feature   EFS_by	Qe
 Feature   mindist	4.154061
END_CFG

BEGIN_CFG
 Size
    2
 Supercell
         5.365664      0.000000      0.000000
         0.000000      5.365664      0.000000
         0.000000      0.000000      5.365664
 AtomData:  id type       cartes_x      cartes_y      cartes_z           fx          fy          fz
             1    0       0.133585      0.607994      5.432766    -0.131842   -0.270635   -0.068675
             2    0       2.549247      2.074838      2.615730     0.131842    0.270635    0.068675
 Energy
        -27.849265403400
 PlusStress:  xx          yy          zz          yz          xz          xy
        -0.06524    -0.73400    -0.01206     0.07801     0.03560     0.15035
 Feature   EFS_by	Qe
 Feature   mindist	3.805595
END_CFG

BEGIN_CFG
 Size
    2
 Supercell
         4.854649      0.000000      0.000000
         0.000000      4.854649      0.000000
         0.000000      0.000000      4.854649
 AtomData:  id type       cartes_x      cartes_y      cartes_z           fx          fy          fz
             1    0       4.603270      4.636066      4.630534     0.299053    0.270382    0.275496
             2    0       2.678703      2.645907      2.651439    -0.299053   -0.270382   -0.275496
 Energy
        -27.947786131300
 PlusStress:  xx          yy          zz          yz          xz          xy
         0.33090     0.41526     0.40160     0.15978     0.17669     0.17344
 Feature   EFS_by	Qe
 Feature   mindist	3.403162
END_CFG

BEGIN_CFG
 Size
    4
 Supercell
         5.365664      0.000000      0.000000
         0.000000      5.365664      0.000000
         0.000000      0.000000     10.731328
 AtomData:  id type       cartes_x      cartes_y      cartes_z           fx          fy          fz
             1    0       0.243780      5.183053      3.347321     0.039958    0.096733   -0.027189
             2    0       2.960560      2.592270      3.295193    -0.088564   -0.075164   -0.009728
             3    0       5.049432      2.760725     10.490662     0.116929    0.063725    0.101889
             4    0       2.477556      0.195281      9.695144    -0.068323   -0.085295   -0.064973
 Energy
        -55.394925753700
 PlusStress:  xx          yy          zz          yz          xz          xy
         1.44928     1.40106    -1.14490     0.14808    -0.11007     0.06439
 Feature   EFS_by	Qe
 Feature   mindist	3.705598
END_CFG

BEGIN_CFG
 Size
    2
 Supercell
         4.956852      0.000000      0.000000
         0.000000      4.956852      0.000000
         0.000000      0.000000      4.956852
 AtomData:  id type       cartes_x      cartes_y      cartes_z           fx          fy          fz
             1    0       0.108748      0.141375     -0.100655    -0.110230   -0.140260    0.102506
             2    0       2.369678      2.337051      2.579080     0.110230    0.140260   -0.102506
 Energy
        -28.097851619000
 PlusStress:  xx          yy          zz          yz          xz          xy
         0.05737     0.02125     0.06497    -0.04395    -0.03433     0.04730
 Feature   EFS_by	Qe
 Feature   mindist	3.888195
END_CFG

BEGIN_CFG
 Size
    1
 Supercell
         2.555087      4.088125      4.088131
        -2.555099      2.555106      2.555112
        -2.555118     -2.555118      2.555125
 AtomData:  id type       cartes_x      cartes_y      cartes_z           fx          fy          fz
             1    0       0.000000      0.000000      0.000000     0.000000    0.000000    0.000000
 Energy
        -13.889475250800
 PlusStress:  xx          yy          zz          yz          xz          xy
        -0.30208    -0.23192    -0.21926    -0.05193    -0.23335    -0.01107
 Feature   EFS_by	Qe
 Feature   mindist	4.425573
END_CFG

BEGIN_CFG
 Size
    2
 Supercell
         5.416770      0.000000      0.000000
         0.000000      5.416770      0.000000
         0.000000      0.000000      5.416775
 AtomData:  id type       cartes_x      cartes_y      cartes_z           fx          fy          fz
             1    0       0.000000      0.000000      0.000000     0.000000    0.000000    0.000000
             2    0       2.708385      2.708386      2.708403     0.000000    0.000000    0.000000
 Energy
        -27.940525045000
 PlusStress:  xx          yy          zz          yz          xz          xy
        -0.49163    -0.49163    -0.49163     0.00000     0.00000     0.00000
 Feature   EFS_by	Qe
 Feature   mindist	4.691052
END_CFG

BEGIN_CFG
 Size
    2
 Supercell
         4.956852      0.000000      0.000000
         0.000000      4.956852      0.000000
         0.000000      0.000000      4.956852
 AtomData:  id type       cartes_x      cartes_y      cartes_z           fx          fy          fz
             1    0       0.099836     -0.076927     -0.023286    -0.097563    0.075949    0.023244
             2    0       2.378590      2.555353      2.501712     0.097563   -0.075949   -0.023244
 Energy
        -28.123282291900
 PlusStress:  xx          yy          zz          yz          xz          xy
        -0.00157     0.01610     0.04014     0.00559    -0.00727    -0.02371
 Feature   EFS_by	Qe
 Feature   mindist	4.063284
END_CFG

BEGIN_CFG
 Size
    1
 Supercell
         2.427325      2.427325      2.427325
        -2.427329      2.427329      2.427329
        -2.427329     -2.427329      2.427329
 AtomData:  id type       cartes_x      cartes_y      cartes_z           fx          fy          fz
             1    0       0.000000      0.000000      0.000000     0.000000    0.000000    0.000000
 Energy
        -13.966802118600
 PlusStress:  xx          yy          zz          yz          xz          xy
         0.29598     0.29608     0.29603     0.00005     0.00000    -0.00000
 Feature   EFS_by	Qe
 Feature   mindist	4.204251
END_CFG

BEGIN_CFG
 Size
    2
 Supercell
         5.212364      0.000000      0.000000
         0.000000      5.212364      0.000000
         0.000000      0.000000      5.212370
 AtomData:  id type       cartes_x      cartes_y      cartes_z           fx          fy          fz
             1    0       0.000000      0.000000      0.000000     0.000000    0.000000    0.000000
             2    0       2.606183      2.606183      2.606200     0.000000    0.000000    0.000000
 Energy
        -27.980363602600
 PlusStress:  xx          yy          zz          yz          xz          xy
        -0.18138    -0.18138    -0.18138     0.00000     0.00000     0.00000
 Feature   EFS_by	Qe
 Feature   mindist	4.514032
END_CFG

BEGIN_CFG
 Size
    2
 Supercell
         4.854649      0.000000      0.000000
         0.000000      4.854649      0.000000
         0.000000      0.000000      4.854649
 AtomData:  id type       cartes_x      cartes_y      cartes_z           fx          fy          fz
             1    0       0.014743     -0.007801     -0.001677    -0.016115    0.008541    0.001874
             2    0       2.412582      2.435125      2.429001     0.016115   -0.008541   -0.001874
 Energy
        -28.132811311100
 PlusStress:  xx          yy          zz          yz          xz          xy
         0.20989     0.21062     0.21136     0.00011    -0.00011    -0.00032
 Feature   EFS_by	Qe
 Feature   mindist	4.176323
END_CFG

BEGIN_CFG
 Size
    2
 Supercell
         5.263461      0.000000      0.000000
         0.000000      5.263461      0.000000
         0.000000      0.000000      5.263461
 AtomData:  id type       cartes_x      cartes_y      cartes_z           fx          fy          fz
             1    0       4.730460      5.241878      0.030986     0.277279    0.022120   -0.031537
             2    0       3.164731      2.653314      2.600745    -0.277279   -0.022120    0.031537
 Energy
        -27.919359620800
 PlusStress:  xx          yy          zz          yz          xz          xy
        -0.65604     0.00067    -0.00120    -0.00268    -0.03494     0.02437
 Feature   EFS_by	Qe
 Feature   mindist	3.969362
END_CFG

BEGIN_CFG
 Size
    2
 Supercell
         4.854649      0.000000      0.000000
         0.000000      4.854649      0.000000
         0.000000      0.000000      4.854649
 AtomData:  id type       cartes_x      cartes_y      cartes_z           fx          fy          fz
             1    0       0.091001      0.016024      0.155822    -0.102304   -0.018517   -0.168212
             2    0       2.336323      2.411300      2.271502     0.102304    0.018517    0.168212
 Energy
        -28.097294329800
 PlusStress:  xx          yy          zz          yz          xz          xy
         0.26157     0.30496     0.17974     0.00788     0.04412     0.00473
 Feature   EFS_by	Qe
 Feature   mindist	3.905754
END_CFG

BEGIN_CFG
 Size
    2
 Supercell
         4.956852      0.000000      0.000000
         0.000000      4.956852      0.000000
         0.000000      0.000000      4.956852
 AtomData:  id type       cartes_x      cartes_y      cartes_z           fx          fy          fz
             1    0       4.912076      0.771589      4.761411     0.090350   -0.398037    0.333184
             2    0       2.523201      1.706837      2.673867    -0.090350    0.398037   -0.333184
 Energy
        -27.646782486700
 PlusStress:  xx          yy          zz          yz          xz          xy
         1.37298    -0.87156     1.06099    -0.23874     0.06508    -0.06586
 Feature   EFS_by	Qe
 Feature   mindist	3.307454
END_CFG

BEGIN_CFG
 Size
    2
 Supercell
         5.161258      0.000000      0.000000
         0.000000      5.161258      0.000000
         0.000000      0.000000      5.161258
 AtomData:  id type       cartes_x      cartes_y      cartes_z           fx          fy          fz
             1    0       0.085142     -0.049237     -0.016349    -0.064456    0.037870    0.012624
             2    0       2.495487      2.629866      2.596978     0.064456   -0.037870   -0.012624
 Energy
        -28.105955169800
 PlusStress:  xx          yy          zz          yz          xz          xy
        -0.34904    -0.33490    -0.32834     0.00227    -0.00404    -0.01187
 Feature   EFS_by	Qe
 Feature   mindist	4.296837
END_CFG

BEGIN_CFG
 Size
    1
 Supercell
         2.171817      2.171817      2.171817
        -2.171821      2.171821      2.171821
        -2.171821     -2.171821      2.171821
 AtomData:  id type       cartes_x      cartes_y      cartes_z           fx          fy          fz
             1    0       0.000000      0.000000      0.000000     0.000000    0.000000    0.000000
 Energy
        -13.722442783600
 PlusStress:  xx          yy          zz          yz          xz          xy
         1.25686     1.25705     1.25693     0.00008     0.00004    -0.00000
 Feature   EFS_by	Qe
 Feature   mindist	3.761698
END_CFG

BEGIN_CFG
 Size
    2
 Supercell
         5.161258      0.000000      0.000000
         0.000000      5.161258      0.000000
         0.000000      0.000000      5.161258
 AtomData:  id type       cartes_x      cartes_y      cartes_z           fx          fy          fz
             1    0       4.561987      5.155389     -0.004829     0.321915    0.007149    0.005885
             2    0       3.179900      2.586498      2.585458    -0.321915   -0.007149   -0.005885
 Energy
        -27.881570760900
 PlusStress:  xx          yy          zz          yz          xz          xy
        -0.66665     0.31496     0.31509     0.00013     0.00593     0.00720
 Feature   EFS_by	Qe
 Feature   mindist	3.888349
END_CFG

BEGIN_CFG
 Size
    2
 Supercell
         5.059055      0.000000      0.000000
         0.000000      5.059055      0.000000
         0.000000      0.000000      5.059055
 AtomData:  id type       cartes_x      cartes_y      cartes_z           fx          fy          fz
             1    0       4.355772      5.013254     -0.000552     0.356648    0.067517    0.000822
             2    0       3.232810      2.575329      2.530080    -0.356648   -0.067517   -0.000822
 Energy
        -27.794681676000
 PlusStress:  xx          yy          zz          yz          xz          xy
        -0.79070     0.74648     0.76122     0.00012     0.00071     0.05718
 Feature   EFS_by	Qe
 Feature   mindist	3.687471
END_CFG

BEGIN_CFG
 Size
    2
 Supercell
         5.365664      0.000000      0.000000
         0.000000      5.365664      0.000000
         0.000000      0.000000      5.365664
 AtomData:  id type       cartes_x      cartes_y      cartes_z           fx          fy          fz
             1    0       0.006332     -0.004273      0.000800    -0.003721    0.002397   -0.000538
             2    0       2.676500      2.687106      2.682032     0.003721   -0.002397    0.000538
 Energy
        -28.055753972100
 PlusStress:  xx          yy          zz          yz          xz          xy
        -0.62578    -0.62578    -0.62564    -0.00000    -0.00000    -0.00000
 Feature   EFS_by	Qe
 Feature   mindist	4.633638
END_CFG

BEGIN_CFG
 Size
    2
 Supercell
         4.854649      0.000000      0.000000
         0.000000      4.854649      0.000000
         0.000000      0.000000      4.854649
 AtomData:  id type       cartes_x      cartes_y      cartes_z           fx          fy          fz
             1    0       0.000000      0.000000      0.000000     0.000000    0.000000    0.000000
             2    0       2.427324      2.427324      2.427324     0.000000    0.000000    0.000000
 Energy
        -28.133109139800
 PlusStress:  xx          yy          zz          yz          xz          xy
         0.21083     0.21083     0.21083     0.00000     0.00000     0.00000
 Feature   EFS_by	Qe
 Feature   mindist	4.204248
END_CFG

BEGIN_CFG
 Size
    1
 Supercell
         2.299571      2.299571      2.299571
        -2.299575      2.299575      2.299575
        -2.299575     -2.299575      2.299575
 AtomData:  id type       cartes_x      cartes_y      cartes_z           fx          fy          fz
             1    0       0.000000      0.000000      0.000000     0.000000    0.000000    0.000000
 Energy
        -13.887733586000
 PlusStress:  xx          yy          zz          yz          xz          xy
         0.69781     0.69768     0.69786     0.00004    -0.00004     0.00004
 Feature   EFS_by	Qe
 Feature   mindist	3.982974
END_CFG

BEGIN_CFG
 Size
    2
 Supercell
         4.854649      0.000000      0.000000
         0.000000      4.854649      0.000000
         0.000000      0.000000      4.854649
 AtomData:  id type       cartes_x      cartes_y      cartes_z           fx          fy          fz
             1    0       4.681908      0.931606      4.601403     0.488951   -0.366626    0.612437
             2    0       2.600065      1.495718      2.680570    -0.488951    0.366626   -0.612437
 Energy
        -27.326697946200
 PlusStress:  xx          yy          zz          yz          xz          xy
         2.21233    -1.18926     1.82396    -0.28206     0.47303    -0.22817
 Feature   EFS_by	Qe
 Feature   mindist	2.888233
END_CFG

BEGIN_CFG
 Size
    8
 Supercell
         4.854649      0.000000      0.000000
         0.000000      9.709298      0.000000
         0.000000      0.000000      9.709298
 AtomData:  id type       cartes_x      cartes_y      cartes_z           fx          fy          fz
             1    0       2.758085      2.423554      1.913532    -0.157296   -0.052813    0.111597
             2    0       0.275772      0.679523      4.594772    -0.100428   -0.156251    0.138653
             3    0       4.390943      5.166726      0.101417     0.200216    0.041608    0.008944
             4    0       2.016140      7.376476      3.101403     0.162941   -0.020484   -0.256856
             5    0       4.730908      9.089724      9.565023     0.085445    0.150287    0.109227
             6    0       0.227811      4.522519      4.920396    -0.105947    0.024467    0.007500
             7    0       2.651589      2.336476      7.673835    -0.108106   -0.020343   -0.131129
             8    0       2.367348      7.242191      6.966810     0.023173    0.033530    0.012063
 Energy
       -112.143385305000
 PlusStress:  xx          yy          zz          yz          xz          xy
        -0.10253     1.96231     1.57531    -0.08404     0.23405     0.22985
 Feature   EFS_by	Qe
 Feature   mindist	3.670829
END_CFG

BEGIN_CFG
 Size
    1
 Supercell
         3.193853      3.193858      3.193864
        -3.193869      3.193875      3.193880
        -3.193886     -3.193891      3.193897
 AtomData:  id type       cartes_x      cartes_y      cartes_z           fx          fy          fz
             1    0       0.000000      0.000000      0.000000     0.000000    0.000000    0.000000
 Energy
        -13.737094482300
 PlusStress:  xx          yy          zz          yz          xz          xy
        -0.61299    -0.61299    -0.61299    -0.00000     0.00000     0.00012
 Feature   EFS_by	Qe
 Feature   mindist	5.531924
END_CFG

BEGIN_CFG
 Size
    4
 Supercell
         5.365664      0.000000      0.000000
         0.000000      5.365664      0.000000
         0.000000      0.000000     10.731328
 AtomData:  id type       cartes_x      cartes_y      cartes_z           fx          fy          fz
             1    0       0.669677      5.046639      3.548049    -0.489667    0.473640   -0.093742
             2    0       5.159407      1.810094      0.378321    -0.114167    0.142828    0.041838
             3    0       2.758503      2.969834      4.203393     0.561839   -0.505886    0.181929
             4    0       2.143741      0.904762      7.967229     0.041995   -0.110581   -0.130025
 Energy
        -55.293996001800
 PlusStress:  xx          yy          zz          yz          xz          xy
         0.16141     0.12396    -0.39657    -0.43799     0.34495    -0.73500
 Feature   EFS_by	Qe
 Feature   mindist	3.017580
END_CFG

BEGIN_CFG
 Size
    2
 Supercell
         5.161258      0.000000      0.000000
         0.000000      5.161258      0.000000
         0.000000      0.000000      5.161258
 AtomData:  id type       cartes_x      cartes_y      cartes_z           fx          fy          fz
             1    0      -0.211352      0.004487      0.000931     0.154336   -0.003680   -0.000855
             2    0       2.791981      2.576142      2.579698    -0.154336    0.003680    0.000855
 Energy
        -28.080249661800
 PlusStress:  xx          yy          zz          yz          xz          xy
        -0.38439    -0.25411    -0.25399    -0.00000    -0.00050    -0.00265
 Feature   EFS_by	Qe
 Feature   mindist	4.233212
END_CFG

BEGIN_CFG
 Size
    2
 Supercell
         5.365664      0.000000      0.000000
         0.000000      5.365664      0.000000
         0.000000      0.000000      5.365664
 AtomData:  id type       cartes_x      cartes_y      cartes_z           fx          fy          fz
             1    0       0.132105      5.184047      0.808300    -0.171638    0.226125   -0.283278
             2    0       2.550727      2.864449      1.874532     0.171638   -0.226125    0.283278
 Energy
        -27.704561783200
 PlusStress:  xx          yy          zz          yz          xz          xy
         0.36466     0.28396    -0.86889    -0.20680     0.15673    -0.11659
 Feature   EFS_by	Qe
 Feature   mindist	3.516691
END_CFG

BEGIN_CFG
 Size
    2
 Supercell
         4.854649      0.000000      0.000000
         0.000000      4.854649      0.000000
         0.000000      0.000000      4.854649
 AtomData:  id type       cartes_x      cartes_y      cartes_z           fx          fy          fz
             1    0       0.436208      0.469079      4.580974    -0.652384   -0.653334    0.568278
             2    0       1.991117      1.958245      2.700999     0.652384    0.653334   -0.568278
 Energy
        -27.498110222000
 PlusStress:  xx          yy          zz          yz          xz          xy
         0.53617     0.37544     1.34189    -0.54279    -0.54625     0.60308
 Feature   EFS_by	Qe
 Feature   mindist	2.858262
END_CFG

BEGIN_CFG
 Size
    2
 Supercell
         4.956852      0.000000      0.000000
         0.000000      4.956852      0.000000
         0.000000      0.000000      4.956852
 AtomData:  id type       cartes_x      cartes_y      cartes_z           fx          fy          fz
             1    0       4.193130      4.559041      0.037700     0.509562    0.652537   -0.122605
             2    0       3.242147      2.876237      2.440725    -0.509562   -0.652537    0.122605
 Energy
        -27.454037572700
 PlusStress:  xx          yy          zz          yz          xz          xy
        -0.75425     0.73122     2.12689    -0.14146    -0.09773     0.48856
 Feature   EFS_by	Qe
 Feature   mindist	3.083947
END_CFG

BEGIN_CFG
 Size
    2
 Supercell
         4.956852      0.000000      0.000000
         0.000000      4.956852      0.000000
         0.000000      0.000000      4.956852
 AtomData:  id type       cartes_x      cartes_y      cartes_z           fx          fy          fz
             1    0       0.003937     -0.003204      0.000292    -0.003809    0.003126   -0.000298
             2    0       2.474489      2.481630      2.478134     0.003809   -0.003126    0.000298
 Energy
        -28.139315920900
 PlusStress:  xx          yy          zz          yz          xz          xy
        -0.00134    -0.00123    -0.00168    -0.00011     0.00000    -0.00011
 Feature   EFS_by	Qe
 Feature   mindist	4.284180
END_CFG

BEGIN_CFG
 Size
    2
 Supercell
         4.956852      0.000000      0.000000
         0.000000      4.956852      0.000000
         0.000000      0.000000      4.956852
 AtomData:  id type       cartes_x      cartes_y      cartes_z           fx          fy          fz
             1    0      -0.233138     -0.080642     -0.028010     0.218012    0.085294    0.030064
             2    0       2.711563      2.559068      2.506436    -0.218012   -0.085294   -0.030064
 Energy
        -28.080040542300
 PlusStress:  xx          yy          zz          yz          xz          xy
        -0.07615     0.12949     0.15700     0.00749     0.01957     0.05558
 Feature   EFS_by	Qe
 Feature   mindist	3.909725
END_CFG

BEGIN_CFG
 Size
    1
 Supercell
         2.555084      2.555089      2.555093
        -2.555102      2.555106      2.555111
        -2.555115     -2.555120      2.555129
 AtomData:  id type       cartes_x      cartes_y      cartes_z           fx          fy          fz
             1    0       0.000000      0.000000      0.000000     0.000000    0.000000    0.000000
 Energy
        -13.988890825100
 PlusStress:  xx          yy          zz          yz          xz          xy
         0.00447     0.00453     0.00447     0.00000     0.00000     0.00000
 Feature   EFS_by	Qe
 Feature   mindist	4.425543
END_CFG

BEGIN_CFG
 Size
    2
 Supercell
         5.059055      0.000000      0.000000
         0.000000      5.059055      0.000000
         0.000000      0.000000      5.059055
 AtomData:  id type       cartes_x      cartes_y      cartes_z           fx          fy          fz
             1    0      -0.075005     -0.089532     -0.058297     0.065890    0.078213    0.051520
             2    0       2.604533      2.619060      2.587824    -0.065890   -0.078213   -0.051520
 Energy
        -28.118410501400
 PlusStress:  xx          yy          zz          yz          xz          xy
        -0.16798    -0.17642    -0.15978     0.01557     0.01320     0.02009
 Feature   EFS_by	Qe
 Feature   mindist	4.124200
END_CFG

BEGIN_CFG
 Size
    6
 Supercell
         4.854649      0.000000      0.000000
         0.000000      4.854649      0.000000
         0.000000      0.000000     14.563947
 AtomData:  id type       cartes_x      cartes_y      cartes_z           fx          fy          fz
             1    0       2.496639      0.882353      2.525037    -0.001075    0.043372   -0.030607
             2    0       4.754786      3.363574      0.744746     0.239821   -0.098489   -0.106171
             3    0       0.336945      3.334124      4.830842    -0.287650   -0.029526   -0.086666
             4    0       2.352883      0.866405      6.372685     0.090494   -0.045647    0.321609
             5    0       3.581592      2.988794      9.243808     0.126335    0.082491    0.065752
             6    0       3.468426      0.701370     12.692747    -0.167924    0.047800   -0.163916
 Energy
        -83.674256364700
 PlusStress:  xx          yy          zz          yz          xz          xy
         0.36084     2.12472     2.49879    -0.00473     0.70971     0.01261
 Feature   EFS_by	Qe
 Feature   mindist	3.484067
END_CFG

BEGIN_CFG
 Size
    2
 Supercell