BEGIN_CFG
 Size
    2
 Supercell
         5.066842      0.000000      0.000000
         0.000000      5.066842      0.000000
         0.000000      0.000000      5.066842
 AtomData:  id type       cartes_x      cartes_y      cartes_z           fx          fy          fz
             1    0       0.694680      0.229647      4.908284    -0.271017    0.073575    0.245617
             2    0       2.367603      2.832636      3.220842     0.271017   -0.073575   -0.245617
 Energy
        -27.539056186240
 PlusStress:  xx          yy          zz          yz          xz          xy
         0.24231     0.78628     0.30015    -0.01246    -0.51389     0.01850
 Feature   MV_grade	4.780105
END_CFG

BEGIN_CFG
 Size
    2
 Supercell
         4.964481      0.000000      0.000000
         0.000000      4.964481      0.000000
         0.000000      0.000000      4.964481
 AtomData:  id type       cartes_x      cartes_y      cartes_z           fx          fy          fz
             1    0       0.236114      0.774314      0.195084    -0.011400   -0.524243   -0.067061
             2    0       2.826170      2.287970      2.867199     0.011400    0.524243    0.067061
 Energy
        -27.490228467404
 PlusStress:  xx          yy          zz          yz          xz          xy
        -0.11269    -1.20787    -0.09254    -0.39567     0.12156    -0.13923
 Feature   MV_grade	2.121241
END_CFG

BEGIN_CFG
 Size
    2
 Supercell
         4.862121      0.000000      0.000000
         0.000000      4.862121      0.000000
         0.000000      0.000000      4.862121
 AtomData:  id type       cartes_x      cartes_y      cartes_z
             1    0       0.000000      0.000000      0.000000
             2    0       3.062284      3.062284      3.062284
 Feature   MV_grade	13.484561
END_CFG

