BEGIN_CFG
 Size
    2
 Supercell
         4.862121      0.000000      0.000000
         0.000000      4.862121      0.000000
         0.000000      0.000000      4.862121
 AtomData:  id type       cartes_x      cartes_y      cartes_z           fx          fy          fz
             1    0       4.485995      4.480505      4.484780    -8.167609   -8.087642   -8.149926
             2    0       3.438410      3.443900      3.439625     8.167609    8.087642    8.149926
 Energy
        -31.902581537122
 PlusStress:  xx          yy          zz          yz          xz          xy
       -24.91835   -24.59848   -24.86129    -6.37515    -6.43177    -6.38838
 Feature   MV_grade	14.466826
END_CFG

BEGIN_CFG
 Size
    2
 Supercell
         4.862121      0.000000      0.000000
         0.000000      4.862121      0.000000
         0.000000      0.000000      4.862121
 AtomData:  id type       cartes_x      cartes_y      cartes_z           fx          fy          fz
             1    0       4.420932      4.416835      4.417591     4.109550    3.966971    4.028836
             2    0       3.503473      3.507570      3.506814    -4.109550   -3.966971   -4.028836
 Energy
        -33.239819777701
 PlusStress:  xx          yy          zz          yz          xz          xy
        -9.31705    -9.13503    -9.21807     5.18357     5.33751     5.27021
 Feature   MV_grade	14.482360
END_CFG

BEGIN_CFG
 Size
    2
 Supercell
         4.862121      0.000000      0.000000
         0.000000      4.862121      0.000000
         0.000000      0.000000      4.862121
 AtomData:  id type       cartes_x      cartes_y      cartes_z           fx          fy          fz
             1    0       4.621993      4.607133      4.618650    -1.218363   -1.056993   -1.176223
             2    0       3.302412      3.317272      3.305754     1.218363    1.056993    1.176223
 Energy
        -28.684949604285
 PlusStress:  xx          yy          zz          yz          xz          xy
       -10.61089   -10.83129   -10.67252     0.10856    -0.07079     0.06178
 Feature   MV_grade	2.277896
END_CFG

BEGIN_CFG
 Size
    2
 Supercell
         5.169202      0.000000      0.000000
         0.000000      5.169202      0.000000
         0.000000      0.000000      5.169202
 AtomData:  id type       cartes_x      cartes_y      cartes_z           fx          fy          fz
             1    0       0.472741      4.968953      4.619415    -0.339261    0.395469    0.281745
             2    0       2.589543      3.262533      3.612071     0.339261   -0.395469   -0.281745
 Energy
        -27.244390736804
 PlusStress:  xx          yy          zz          yz          xz          xy
         1.23695     0.74382     0.11915     0.46305    -0.42263     0.09430
 Feature   MV_grade	2.144473
END_CFG

BEGIN_CFG
 Size
    2
 Supercell
         5.169202      0.000000      0.000000
         0.000000      5.169202      0.000000
         0.000000      0.000000      5.169202
 AtomData:  id type       cartes_x      cartes_y      cartes_z           fx          fy          fz
             1    0       4.665244      0.942446      1.407454    -2.043050    1.229654    0.751797
             2    0       3.566242      2.119838      1.654830     2.043050   -1.229654   -0.751797
 Energy
        -33.308068795173
 PlusStress:  xx          yy          zz          yz          xz          xy
        -6.19840    -9.13851    -0.20618    -0.33724     0.56032     0.01310
 Feature   MV_grade	10.228695
END_CFG

