BEGIN_CFG
 Size
    1
 Supercell
    2.5665094712346295     2.5665094712346295      2.5665094712346295 
    -2.5665094712346295     2.5665094712346295      2.5665094712346295 
    -2.5665094712346295     -2.5665094712346295      2.5665094712346295 
 AtomData:  id type    cartes_x    cartes_y    cartes_z    fx    fy    fz
    1    0   0.0    0.0    0.0    0.0    0.0    0.0
 Energy
    -13.9952972018
 PlusStress:  xx          yy          zz          yz          xz          xy
    0.0   0.0    0.0    0.0    0.0    0.0
 Feature EFS_by Qe
END_CFG

BEGIN_CFG
 Size
    1
 Supercell
    2.6723449133473975     2.6723449133473975      2.6723449133473975 
    -2.6723449133473975     2.6723449133473975      2.6723449133473975 
    -2.6723449133473975     -2.6723449133473975      2.6723449133473975 
 AtomData:  id type    cartes_x    cartes_y    cartes_z    fx    fy    fz
    1    0   0.0    0.0    0.0    0.0    0.0    0.0
 Energy
    -13.9816603517
 PlusStress:  xx          yy          zz          yz          xz          xy
    0.0   0.0    0.0    0.0    0.0    0.0
 Feature EFS_by Qe
END_CFG

BEGIN_CFG
 Size
    1
 Supercell
    2.778180355460166     2.778180355460166      2.778180355460166 
    -2.778180355460166     2.778180355460166      2.778180355460166 
    -2.778180355460166     -2.778180355460166      2.778180355460166 
 AtomData:  id type    cartes_x    cartes_y    cartes_z    fx    fy    fz
    1    0   0.0    0.0    0.0    0.0    0.0    0.0
 Energy
    -13.950551887
 PlusStress:  xx          yy          zz          yz          xz          xy
    0.0   0.0    0.0    0.0    0.0    0.0
 Feature EFS_by Qe
END_CFG

BEGIN_CFG
 Size
    1
 Supercell
    2.5135917501782457     2.5135917501782457      2.5135917501782457 
    -2.5135917501782457     2.5135917501782457      2.5135917501782457 
    -2.5135917501782457     -2.5135917501782457      2.5135917501782457 
 AtomData:  id type    cartes_x    cartes_y    cartes_z    fx    fy    fz
    1    0   0.0    0.0    0.0    0.0    0.0    0.0
 Energy
    -13.9934015205
 PlusStress:  xx          yy          zz          yz          xz          xy
    0.0   0.0    0.0    0.0    0.0    0.0
 Feature EFS_by Qe
END_CFG

BEGIN_CFG
 Size
    1
 Supercell
    2.381297447537285     2.381297447537285      2.381297447537285 
    -2.381297447537285     2.381297447537285      2.381297447537285 
    -2.381297447537285     -2.381297447537285      2.381297447537285 
 AtomData:  id type    cartes_x    cartes_y    cartes_z    fx    fy    fz
    1    0   0.0    0.0    0.0    0.0    0.0    0.0
 Energy
    -13.9538363013
 PlusStress:  xx          yy          zz          yz          xz          xy
    0.0   0.0    0.0    0.0    0.0    0.0
 Feature EFS_by Qe
END_CFG

BEGIN_CFG
 Size
    1
 Supercell
    2.5929683317628216     2.5929683317628216      2.5929683317628216 
    -2.5929683317628216     2.5929683317628216      2.5929683317628216 
    -2.5929683317628216     -2.5929683317628216      2.5929683317628216 
 AtomData:  id type    cartes_x    cartes_y    cartes_z    fx    fy    fz
    1    0   0.0    0.0    0.0    0.0    0.0    0.0
 Energy
    -13.9938815294
 PlusStress:  xx          yy          zz          yz          xz          xy
    0.0   0.0    0.0    0.0    0.0    0.0
 Feature EFS_by Qe
END_CFG

BEGIN_CFG
 Size
    1
 Supercell
    2.6194271922910137     2.6194271922910137      2.6194271922910137 
    -2.6194271922910137     2.6194271922910137      2.6194271922910137 
    -2.6194271922910137     -2.6194271922910137      2.6194271922910137 
 AtomData:  id type    cartes_x    cartes_y    cartes_z    fx    fy    fz
    1    0   0.0    0.0    0.0    0.0    0.0    0.0
 Energy
    -13.9910599808
 PlusStress:  xx          yy          zz          yz          xz          xy
    0.0   0.0    0.0    0.0    0.0    0.0
 Feature EFS_by Qe
END_CFG

BEGIN_CFG
 Size
    1
 Supercell
    2.3548385870090933     2.3548385870090933      2.3548385870090933 
    -2.3548385870090933     2.3548385870090933      2.3548385870090933 
    -2.3548385870090933     -2.3548385870090933      2.3548385870090933 
 AtomData:  id type    cartes_x    cartes_y    cartes_z    fx    fy    fz
    1    0   0.0    0.0    0.0    0.0    0.0    0.0
 Energy
    -13.9384492149
 PlusStress:  xx          yy          zz          yz          xz          xy
    0.0   0.0    0.0    0.0    0.0    0.0
 Feature EFS_by Qe
END_CFG

BEGIN_CFG
 Size
    1
 Supercell
    2.328379726480901     2.328379726480901      2.328379726480901 
    -2.328379726480901     2.328379726480901      2.328379726480901 
    -2.328379726480901     -2.328379726480901      2.328379726480901 
 AtomData:  id type    cartes_x    cartes_y    cartes_z    fx    fy    fz
    1    0   0.0    0.0    0.0    0.0    0.0    0.0
 Energy
    -13.9200336373
 PlusStress:  xx          yy          zz          yz          xz          xy
    0.0   0.0    0.0    0.0    0.0    0.0
 Feature EFS_by Qe
END_CFG

BEGIN_CFG
 Size
    1
 Supercell
    2.5400506107064373     2.5400506107064373      2.5400506107064373 
    -2.5400506107064373     2.5400506107064373      2.5400506107064373 
    -2.5400506107064373     -2.5400506107064373      2.5400506107064373 
 AtomData:  id type    cartes_x    cartes_y    cartes_z    fx    fy    fz
    1    0   0.0    0.0    0.0    0.0    0.0    0.0
 Energy
    -13.9951791043
 PlusStress:  xx          yy          zz          yz          xz          xy
    0.0   0.0    0.0    0.0    0.0    0.0
 Feature EFS_by Qe
END_CFG

BEGIN_CFG
 Size
    1
 Supercell
    2.4871328896500535     2.4871328896500535      2.4871328896500535 
    -2.4871328896500535     2.4871328896500535      2.4871328896500535 
    -2.4871328896500535     -2.4871328896500535      2.4871328896500535 
 AtomData:  id type    cartes_x    cartes_y    cartes_z    fx    fy    fz
    1    0   0.0    0.0    0.0    0.0    0.0    0.0
 Energy
    -13.9897998215
 PlusStress:  xx          yy          zz          yz          xz          xy
    0.0   0.0    0.0    0.0    0.0    0.0
 Feature EFS_by Qe
END_CFG

BEGIN_CFG
 Size
    1
 Supercell
    2.7252626344037822     2.7252626344037822      2.7252626344037822 
    -2.7252626344037822     2.7252626344037822      2.7252626344037822 
    -2.7252626344037822     -2.7252626344037822      2.7252626344037822 
 AtomData:  id type    cartes_x    cartes_y    cartes_z    fx    fy    fz
    1    0   0.0    0.0    0.0    0.0    0.0    0.0
 Energy
    -13.9679196902
 PlusStress:  xx          yy          zz          yz          xz          xy
    0.0   0.0    0.0    0.0    0.0    0.0
 Feature EFS_by Qe
END_CFG

BEGIN_CFG
 Size
    1
 Supercell
    2.4606740291218614     2.4606740291218614      2.4606740291218614 
    -2.4606740291218614     2.4606740291218614      2.4606740291218614 
    -2.4606740291218614     -2.4606740291218614      2.4606740291218614 
 AtomData:  id type    cartes_x    cartes_y    cartes_z    fx    fy    fz
    1    0   0.0    0.0    0.0    0.0    0.0    0.0
 Energy
    -13.9842323719
 PlusStress:  xx          yy          zz          yz          xz          xy
    0.0   0.0    0.0    0.0    0.0    0.0
 Feature EFS_by Qe
END_CFG

BEGIN_CFG
 Size
    1
 Supercell
    2.751721494931974     2.751721494931974      2.751721494931974 
    -2.751721494931974     2.751721494931974      2.751721494931974 
    -2.751721494931974     -2.751721494931974      2.751721494931974 
 AtomData:  id type    cartes_x    cartes_y    cartes_z    fx    fy    fz
    1    0   0.0    0.0    0.0    0.0    0.0    0.0
 Energy
    -13.9596500139
 PlusStress:  xx          yy          zz          yz          xz          xy
    0.0   0.0    0.0    0.0    0.0    0.0
 Feature EFS_by Qe
END_CFG

BEGIN_CFG
 Size
    1
 Supercell
    2.407756308065477     2.407756308065477      2.407756308065477 
    -2.407756308065477     2.407756308065477      2.407756308065477 
    -2.407756308065477     -2.407756308065477      2.407756308065477 
 AtomData:  id type    cartes_x    cartes_y    cartes_z    fx    fy    fz
    1    0   0.0    0.0    0.0    0.0    0.0    0.0
 Energy
    -13.9664510917
 PlusStress:  xx          yy          zz          yz          xz          xy
    0.0   0.0    0.0    0.0    0.0    0.0
 Feature EFS_by Qe
END_CFG

BEGIN_CFG
 Size
    1
 Supercell
    2.4342151685936693     2.4342151685936693      2.4342151685936693 
    -2.4342151685936693     2.4342151685936693      2.4342151685936693 
    -2.4342151685936693     -2.4342151685936693      2.4342151685936693 
 AtomData:  id type    cartes_x    cartes_y    cartes_z    fx    fy    fz
    1    0   0.0    0.0    0.0    0.0    0.0    0.0
 Energy
    -13.9765126378
 PlusStress:  xx          yy          zz          yz          xz          xy
    0.0   0.0    0.0    0.0    0.0    0.0
 Feature EFS_by Qe
END_CFG

BEGIN_CFG
 Size
    1
 Supercell
    2.645886052819206     2.645886052819206      2.645886052819206 
    -2.645886052819206     2.645886052819206      2.645886052819206 
    -2.645886052819206     -2.645886052819206      2.645886052819206 
 AtomData:  id type    cartes_x    cartes_y    cartes_z    fx    fy    fz
    1    0   0.0    0.0    0.0    0.0    0.0    0.0
 Energy
    -13.9869484764
 PlusStress:  xx          yy          zz          yz          xz          xy
    0.0   0.0    0.0    0.0    0.0    0.0
 Feature EFS_by Qe
END_CFG

BEGIN_CFG
 Size
    1
 Supercell
    2.6988037738755897     2.6988037738755897      2.6988037738755897 
    -2.6988037738755897     2.6988037738755897      2.6988037738755897 
    -2.6988037738755897     -2.6988037738755897      2.6988037738755897 
 AtomData:  id type    cartes_x    cartes_y    cartes_z    fx    fy    fz
    1    0   0.0    0.0    0.0    0.0    0.0    0.0
 Energy
    -13.9752849961
 PlusStress:  xx          yy          zz          yz          xz          xy
    0.0   0.0    0.0    0.0    0.0    0.0
 Feature EFS_by Qe
END_CFG

