BEGIN_CFG
 Size
    2
 Supercell
         5.059055      0.000000      0.000000
         0.000000      5.059055      0.000000
         0.000000      0.000000      5.059055
 AtomData:  id type       cartes_x      cartes_y      cartes_z           fx          fy          fz
             1    0       0.215231      4.851027      5.003317    -0.193003    0.188010    0.055922
             2    0       2.314297      2.737555      2.585265     0.193003   -0.188010   -0.055922
 Energy
        -28.051349129000
 PlusStress:  xx          yy          zz          yz          xz          xy
        -0.14742    -0.13636     0.02449     0.03555    -0.03650    -0.12435
 Feature   EFS_by	Qe
 Feature   mindist	3.836641
END_CFG

BEGIN_CFG
 Size
    2
 Supercell
         5.365664      0.000000      0.000000
         0.000000      5.365664      0.000000
         0.000000      0.000000      5.365664
 AtomData:  id type       cartes_x      cartes_y      cartes_z           fx          fy          fz
             1    0       0.304814      0.030659      5.102980    -0.188800   -0.024220    0.172966
             2    0       2.378018      2.652173      2.945516     0.188800    0.024220   -0.172966
 Energy
        -27.956996913300
 PlusStress:  xx          yy          zz          yz          xz          xy
        -0.54082    -0.32693    -0.49473    -0.02241    -0.17815     0.02468
 Feature   EFS_by	Qe
 Feature   mindist	3.978085
END_CFG

BEGIN_CFG
 Size
    2
 Supercell
         4.854649      0.000000      0.000000
         0.000000      4.854649      0.000000
         0.000000      0.000000      4.854649
 AtomData:  id type       cartes_x      cartes_y      cartes_z           fx          fy          fz
             1    0       0.389523      0.489103      4.570157    -0.635038   -0.643827    0.572256
             2    0       2.037801      1.938221      2.711816     0.635038    0.643827   -0.572256
 Energy
        -27.519978380300
 PlusStress:  xx          yy          zz          yz          xz          xy
         0.73839     0.25632     1.25229    -0.54237    -0.54825     0.58880
 Feature   EFS_by	Qe
 Feature   mindist	2.875794
END_CFG

BEGIN_CFG
 Size
    2
 Supercell
         5.263461      0.000000      0.000000
         0.000000      5.263461      0.000000
         0.000000      0.000000      5.263461
 AtomData:  id type       cartes_x      cartes_y      cartes_z           fx          fy          fz
             1    0       5.216845      0.380159      0.379085     0.050627   -0.289210   -0.288928
             2    0       2.678347      2.251572      2.252646    -0.050627    0.289210    0.288928
 Energy
        -27.879942023400
 PlusStress:  xx          yy          zz          yz          xz          xy
         0.11447    -0.35573    -0.35372     0.30807    -0.05235    -0.05248
 Feature   EFS_by	Qe
 Feature   mindist	3.668295
END_CFG

BEGIN_CFG
 Size
    2
 Supercell
         5.059055      0.000000      0.000000
         0.000000      5.059055      0.000000
         0.000000      0.000000      5.059055
 AtomData:  id type       cartes_x      cartes_y      cartes_z           fx          fy          fz
             1    0      -0.090145      0.096654      0.073669     0.079463   -0.084984   -0.065515
             2    0       2.619672      2.432873      2.455859    -0.079463    0.084984    0.065515
 Energy
        -28.113253399500
 PlusStress:  xx          yy          zz          yz          xz          xy
        -0.16299    -0.16751    -0.15300     0.02140    -0.01997    -0.02604
 Feature   EFS_by	Qe
 Feature   mindist	4.080646
END_CFG

BEGIN_CFG
 Size
    4
 Supercell
         4.854649      0.000000      0.000000
         0.000000      4.854649      0.000000
         0.000000      0.000000      9.709298
 AtomData:  id type       cartes_x      cartes_y      cartes_z           fx          fy          fz
             1    0       2.794066      3.695802      1.804308    -0.069706   -0.080872    0.365671
             2    0       4.676528      1.375691      5.712329    -0.053548   -0.013033   -0.669222
             3    0       0.065304      0.978721      9.137374    -0.078950    0.196877    0.510366
             4    0       2.173399      3.659083      7.619232     0.202205   -0.102972   -0.206815
 Energy
        -55.665865986900
 PlusStress:  xx          yy          zz          yz          xz          xy
         1.26731     1.34000     1.98710    -0.04538    -0.07542    -0.04622
 Feature   EFS_by	Qe
 Feature   mindist	3.387676
END_CFG

BEGIN_CFG
 Size
    4
 Supercell
         4.854649      0.000000      0.000000
         0.000000      4.854649      0.000000
         0.000000      0.000000      9.709298
 AtomData:  id type       cartes_x      cartes_y      cartes_z           fx          fy          fz
             1    0       2.224706      2.618544      2.404375     0.006062   -0.053721    0.042353
             2    0       0.263380      0.358402      5.031769    -0.007245   -0.247637   -0.177533
             3    0       4.340205      4.644552      9.623497     0.277478    0.044704    0.111909
             4    0       2.881006      2.087799      7.213602    -0.276295    0.256654    0.023271
 Energy
        -55.996403917400
 PlusStress:  xx          yy          zz          yz          xz          xy
         0.33427     0.59247     0.91140    -0.02542    -0.15337    -0.03088
 Feature   EFS_by	Qe
 Feature   mindist	3.571481
END_CFG

BEGIN_CFG
 Size
    4
 Supercell
         5.161258      0.000000      0.000000
         0.000000      5.161258      0.000000
         0.000000      0.000000     10.322516
 AtomData:  id type       cartes_x      cartes_y      cartes_z           fx          fy          fz
             1    0       2.701996      2.593788      1.985706    -0.069014    0.011732    0.302754
             2    0       5.012400      0.059859     10.269175     0.077622   -0.042435   -0.001138
             3    0       0.208398      5.103028      5.262179    -0.048160    0.010637   -0.038943
             4    0       2.399723      2.565842      8.289230     0.039551    0.020066   -0.262674
 Energy
        -56.063833051700
 PlusStress:  xx          yy          zz          yz          xz          xy
        -0.45117    -0.36280    -0.20425    -0.00757    -0.04115    -0.01035
 Feature   EFS_by	Qe
 Feature   mindist	3.989546
END_CFG

BEGIN_CFG
 Size
    6
 Supercell
         4.854649      0.000000      0.000000
         0.000000      4.854649      0.000000
         0.000000      0.000000     14.563947
 AtomData:  id type       cartes_x      cartes_y      cartes_z           fx          fy          fz
             1    0       1.340227      2.191968      1.769694     0.044199    0.113881    0.226605
             2    0       4.466685      1.501772      5.592236    -0.059631    0.051991   -0.275061
             3    0       1.936957      4.136403      7.758553    -0.134869   -0.231997   -0.088102
             4    0       3.943356      1.283062      9.730676     0.170634    0.000073    0.125158
             5    0       3.780077      0.090573     14.062774     0.065102    0.034520    0.065716
             6    0       1.523968      2.932844     12.059877    -0.085436    0.031533   -0.054317
 Energy
        -83.866265074700
 PlusStress:  xx          yy          zz          yz          xz          xy
         1.64128     0.81654     1.85274     0.73240     0.22060     0.17333
 Feature   EFS_by	Qe
 Feature   mindist	3.452555
END_CFG

BEGIN_CFG
 Size
    2
 Supercell
         5.263461      0.000000      0.000000
         0.000000      5.263461      0.000000
         0.000000      0.000000      5.263461
 AtomData:  id type       cartes_x      cartes_y      cartes_z           fx          fy          fz
             1    0       0.012649      0.119589      0.118306    -0.008866   -0.080695   -0.079818
             2    0       2.619082      2.512142      2.513424     0.008866    0.080695    0.079818
 Energy
        -28.069363882900
 PlusStress:  xx          yy          zz          yz          xz          xy
        -0.44048    -0.47543    -0.47462     0.03695     0.00415     0.00402
 Feature   EFS_by	Qe
 Feature   mindist	4.272516
END_CFG

BEGIN_CFG
 Size
    2
 Supercell
         5.161258      0.000000      0.000000
         0.000000      5.161258      0.000000
         0.000000      0.000000      5.161258
 AtomData:  id type       cartes_x      cartes_y      cartes_z           fx          fy          fz
             1    0       0.007020      0.346491     -0.047935    -0.006508   -0.237641    0.044581
             2    0       2.573609      2.234138      2.628564     0.006508    0.237641   -0.044581
 Energy
        -28.024861838000
 PlusStress:  xx          yy          zz          yz          xz          xy
        -0.09556    -0.44385    -0.10402    -0.04254    -0.00114     0.00631
 Feature   EFS_by	Qe
 Feature   mindist	4.040373
END_CFG

BEGIN_CFG
 Size
    2
 Supercell
         5.059055      0.000000      0.000000
         0.000000      5.059055      0.000000
         0.000000      0.000000      5.059055
 AtomData:  id type       cartes_x      cartes_y      cartes_z           fx          fy          fz
             1    0       0.062891      0.002026      0.010251    -0.054250   -0.001690   -0.008915
             2    0       2.466636      2.527502      2.519277     0.054250    0.001690    0.008915
 Energy
        -28.129728397200
 PlusStress:  xx          yy          zz          yz          xz          xy
        -0.19283    -0.17821    -0.17892     0.00012     0.00202     0.00036
 Feature   EFS_by	Qe
 Feature   mindist	4.295489
END_CFG

BEGIN_CFG
 Size
    2
 Supercell
         5.365664      0.000000      0.000000
         0.000000      5.365664      0.000000
         0.000000      0.000000      5.365664
 AtomData:  id type       cartes_x      cartes_y      cartes_z           fx          fy          fz
             1    0       4.979735      5.089425      5.331478     0.231971    0.198331    0.029955
             2    0       3.068761      2.959071      2.717018    -0.231971   -0.198331   -0.029955
 Energy
        -27.917598227800
 PlusStress:  xx          yy          zz          yz          xz          xy
        -0.55600    -0.41601    -0.20609     0.02837     0.03376     0.22651
 Feature   EFS_by	Qe
 Feature   mindist	3.876290
END_CFG

BEGIN_CFG
 Size
    2
 Supercell
         4.956852      0.000000      0.000000
         0.000000      4.956852      0.000000
         0.000000      0.000000      4.956852
 AtomData:  id type       cartes_x      cartes_y      cartes_z           fx          fy          fz
             1    0       4.930519      0.299917      0.316393     0.034173   -0.310286   -0.319503
             2    0       2.504759      2.178508      2.162033    -0.034173    0.310286    0.319503
 Energy
        -27.948435667100
 PlusStress:  xx          yy          zz          yz          xz          xy
         0.51696     0.06038     0.01834     0.24612    -0.02673    -0.02594
 Feature   EFS_by	Qe
 Feature   mindist	3.580476
END_CFG

BEGIN_CFG
 Size
    2
 Supercell
         5.161258      0.000000      0.000000
         0.000000      5.161258      0.000000
         0.000000      0.000000      5.161258
 AtomData:  id type       cartes_x      cartes_y      cartes_z           fx          fy          fz
             1    0       0.097093     -0.073741     -0.022582    -0.073955    0.056736    0.017539
             2    0       2.483536      2.654370      2.603211     0.073955   -0.056736   -0.017539
 Energy
        -28.101792644000
 PlusStress:  xx          yy          zz          yz          xz          xy
        -0.34387    -0.33200    -0.31723     0.00480    -0.00619    -0.02020
 Feature   EFS_by	Qe
 Feature   mindist	4.247811
END_CFG

BEGIN_CFG
 Size
    4
 Supercell
         4.956852      0.000000      0.000000
         0.000000      4.956852      0.000000
         0.000000      0.000000      9.913704
 AtomData:  id type       cartes_x      cartes_y      cartes_z           fx          fy          fz
             1    0       3.939026      3.924895      2.919512    -0.064544   -0.056795   -0.218906
             2    0       1.292802      1.337554      5.651473     0.045123    0.011335   -0.382781
             3    0       0.927347      0.888454      9.517754     0.084296    0.087172    0.179726
             4    0       3.754528      3.762799      6.695520    -0.064876   -0.041712    0.421961
 Energy
        -55.838591212100
 PlusStress:  xx          yy          zz          yz          xz          xy
         0.63181     0.61727     0.96280    -0.04965    -0.04764     0.08700
 Feature   EFS_by	Qe
 Feature   mindist	3.609978
END_CFG

BEGIN_CFG
 Size
    6
 Supercell
         4.956852      0.000000      0.000000
         0.000000      4.956852      0.000000
         0.000000      0.000000     14.870556
 AtomData:  id type       cartes_x      cartes_y      cartes_z           fx          fy          fz
             1    0       1.400578      2.889733      3.010207    -0.449117   -0.502394   -0.553653
             2    0       3.055315      4.321459      4.590291     0.602248    0.561887    0.654748
             3    0       0.792527      1.843836      7.386389    -0.201555    0.102796   -0.153133
             4    0       2.592831      4.866085      9.880557     0.169885    0.014130   -0.059072
             5    0       4.405908      0.662248      0.493186    -0.140760   -0.079580   -0.103303
             6    0       0.144970      2.765620     11.815758     0.019299   -0.096839    0.214414
 Energy
        -83.418815192800
 PlusStress:  xx          yy          zz          yz          xz          xy
         0.70583     0.55152     1.12350     0.18048     1.12450     0.55420
 Feature   EFS_by	Qe
 Feature   mindist	2.699011
END_CFG

BEGIN_CFG
 Size
    2
 Supercell
         4.956852      0.000000      0.000000
         0.000000      4.956852      0.000000
         0.000000      0.000000      4.956852
 AtomData:  id type       cartes_x      cartes_y      cartes_z           fx          fy          fz
             1    0       4.623700     -0.024592      0.030525     0.290618    0.028243   -0.035027
             2    0       2.811578      2.503018      2.447901    -0.290618   -0.028243    0.035027
 Energy
        -28.035349514300
 PlusStress:  xx          yy          zz          yz          xz          xy
        -0.19044     0.27665     0.27486    -0.00268    -0.02840     0.02292
 Feature   EFS_by	Qe
 Feature   mindist	3.876688
END_CFG

BEGIN_CFG
 Size
    2
 Supercell
         4.854649      0.000000      0.000000
         0.000000      4.854649      0.000000
         0.000000      0.000000      4.854649
 AtomData:  id type       cartes_x      cartes_y      cartes_z           fx          fy          fz
             1    0       0.084645      0.176195      0.215918    -0.102777   -0.201432   -0.237477
             2    0       2.342679      2.251129      2.211406     0.102777    0.201432    0.237477
 Energy
        -28.039123189300
 PlusStress:  xx          yy          zz          yz          xz          xy
         0.41641     0.28363     0.20411     0.11356     0.05746     0.04843
 Feature   EFS_by	Qe
 Feature   mindist	3.658694
END_CFG

BEGIN_CFG
 Size
    4
 Supercell
         4.854649      0.000000      0.000000
         0.000000      4.854649      0.000000
         0.000000      0.000000      9.709298
 AtomData:  id type       cartes_x      cartes_y      cartes_z           fx          fy          fz
             1    0       2.474336      2.395460      2.063493    -0.045972    0.046778    0.247393
             2    0       4.492676      4.253475      4.901842     0.134671    0.158345    0.036258
             3    0       0.163064      0.537088      9.343714    -0.033381   -0.416150    0.218684
             4    0       2.579221      2.523274      7.964193    -0.055317    0.211027   -0.502335
 Energy
        -55.821206946000
 PlusStress:  xx          yy          zz          yz          xz          xy
         1.25134     0.55970     1.13285    -0.00168     0.06345     0.14287
 Feature   EFS_by	Qe
 Feature   mindist	3.418454
END_CFG

BEGIN_CFG
 Size
    4
 Supercell
         5.059055      0.000000      0.000000
         0.000000      5.059055      0.000000
         0.000000      0.000000     10.118110
 AtomData:  id type       cartes_x      cartes_y      cartes_z           fx          fy          fz
             1    0       2.631949      0.951261      1.763614    -0.067962   -0.038432    0.184481
             2    0       4.066780      3.356045      4.401664     0.124236    0.074045    0.243693
             3    0       0.274577      3.570308      0.823616     0.045098    0.101632   -0.234980
             4    0       3.144804      2.240496      8.188271    -0.101372   -0.137246   -0.193194
 Energy
        -55.559078167800
 PlusStress:  xx          yy          zz          yz          xz          xy
         0.48576     0.55305     1.53860     0.00071     0.12388     0.23301
 Feature   EFS_by	Qe
 Feature   mindist	3.520573
END_CFG

BEGIN_CFG
 Size
    2
 Supercell
         5.059055      0.000000      0.000000
         0.000000      5.059055      0.000000
         0.000000      0.000000      5.059055
 AtomData:  id type       cartes_x      cartes_y      cartes_z           fx          fy          fz
             1    0       4.933158      0.942466      4.788031     0.317611   -0.327154    0.523542
             2    0       2.655424      1.587061      2.800551    -0.317611    0.327154   -0.523542
 Energy
        -27.476500299800
 PlusStress:  xx          yy          zz          yz          xz          xy
         1.67164    -1.12120     1.14521    -0.28568     0.32919    -0.17631
 Feature   EFS_by	Qe
 Feature   mindist	3.090898
END_CFG

BEGIN_CFG
 Size
    2
 Supercell
         5.161258      0.000000      0.000000
         0.000000      5.161258      0.000000
         0.000000      0.000000      5.161258
 AtomData:  id type       cartes_x      cartes_y      cartes_z           fx          fy          fz
             1    0       4.766033      4.936690      0.091848     0.290858    0.213586   -0.097385
             2    0       2.975854      2.805197      2.488781    -0.290858   -0.213586    0.097385
 Energy
        -27.945686636800
 PlusStress:  xx          yy          zz          yz          xz          xy
        -0.38464    -0.07612     0.09405    -0.06905    -0.09682     0.21460
 Feature   EFS_by	Qe
 Feature   mindist	3.673321
END_CFG

BEGIN_CFG
 Size
    2
 Supercell
         5.161258      0.000000      0.000000
         0.000000      5.161258      0.000000
         0.000000      0.000000      5.161258
 AtomData:  id type       cartes_x      cartes_y      cartes_z           fx          fy          fz
             1    0       0.328827      0.099822      0.026456    -0.231763   -0.090657   -0.024671
             2    0       2.251802      2.480807      2.554173     0.231763    0.090657    0.024671
 Energy
        -28.025512190100
 PlusStress:  xx          yy          zz          yz          xz          xy
        -0.41822    -0.13432    -0.09973     0.00871     0.02285     0.08470
 Feature   EFS_by	Qe
 Feature   mindist	3.969418
END_CFG

BEGIN_CFG
 Size
    2
 Supercell
         4.956852      0.000000      0.000000
         0.000000      4.956852      0.000000
         0.000000      0.000000      4.956852
 AtomData:  id type       cartes_x      cartes_y      cartes_z           fx          fy          fz
             1    0       4.740808      0.533987      0.180376     0.316519   -0.445875   -0.276569
             2    0       2.694470      1.944439      2.298050    -0.316519    0.445875    0.276569
 Energy
        -27.786346148200
 PlusStress:  xx          yy          zz          yz          xz          xy
         0.67430    -0.33838     0.76890     0.25518    -0.18909    -0.29108
 Feature   EFS_by	Qe
 Feature   mindist	3.265183
END_CFG

BEGIN_CFG
 Size
    8
 Supercell
         5.161258      0.000000      0.000000
         0.000000     10.322516      0.000000
         0.000000      0.000000     10.322516
 AtomData:  id type       cartes_x      cartes_y      cartes_z           fx          fy          fz
             1    0       0.955309      1.955981      1.266441    -0.024907   -0.075968    0.020405
             2    0       2.272112      2.713777      4.846145     0.058537    0.071114   -0.183702
             3    0       4.865668      8.703901      3.051446    -0.197567    0.824853   -0.615784
             4    0       3.909968      5.250651      1.146700    -0.117651    0.044174    0.190143
             5    0       4.667472      1.941989      7.609704    -0.164134   -0.406279    0.079434
             6    0       1.270461      4.693153      8.598920     0.211819    0.367152   -0.148709
             7    0       0.197264      6.967701      4.867319     0.230895   -0.737151    0.819590
             8    0       2.506779      9.062912      9.903391     0.003009   -0.087896   -0.161376
 Energy
       -110.686258033000
 PlusStress:  xx          yy          zz          yz          xz          xy
        -1.88546     0.81347     1.77741    -1.21944     1.27549     0.05100
 Feature   EFS_by	Qe
 Feature   mindist	2.560213
END_CFG

BEGIN_CFG
 Size
    1
 Supercell
         2.555084      2.555089      2.555093
        -2.555102      2.555106      2.555111
        -2.555115     -2.555120      2.555129
 AtomData:  id type       cartes_x      cartes_y      cartes_z           fx          fy          fz
             1    0       0.000000      0.000000      0.000000     0.000000    0.000000    0.000000
 Energy
        -13.988890825100
 PlusStress:  xx          yy          zz          yz          xz          xy
         0.00447     0.00453     0.00447     0.00000     0.00000     0.00000
 Feature   EFS_by	Qe
 Feature   mindist	4.425543
END_CFG

BEGIN_CFG
 Size
    2
 Supercell
         4.956852      0.000000      0.000000
         0.000000      4.956852      0.000000
         0.000000      0.000000      4.956852
 AtomData:  id type       cartes_x      cartes_y      cartes_z           fx          fy          fz
             1    0       0.057132     -0.029413     -0.013995    -0.055674    0.028835    0.013738
             2    0       2.421294      2.507838      2.492421     0.055674   -0.028835   -0.013738
 Energy
        -28.135126047700
 PlusStress:  xx          yy          zz          yz          xz          xy
        -0.00425     0.00626     0.00906     0.00123    -0.00257    -0.00526
 Feature   EFS_by	Qe
 Feature   mindist	4.177124
END_CFG

BEGIN_CFG
 Size
    2
 Supercell
         5.263461      0.000000      0.000000
         0.000000      5.263461      0.000000
         0.000000      0.000000      5.263461
 AtomData:  id type       cartes_x      cartes_y      cartes_z           fx          fy          fz
             1    0       5.216845      0.380159      0.379085     0.050627   -0.289210   -0.288928
             2    0       2.678347      2.251572      2.252646    -0.050627    0.289210    0.288928
 Energy
        -27.879942023400
 PlusStress:  xx          yy          zz          yz          xz          xy
         0.11447    -0.35573    -0.35372     0.30807    -0.05235    -0.05248
 Feature   EFS_by	Qe
 Feature   mindist	3.668295
END_CFG

BEGIN_CFG
 Size
    2
 Supercell
         5.416770      0.000000      0.000000
         0.000000      5.416770      0.000000
         0.000000      0.000000      5.416775
 AtomData:  id type       cartes_x      cartes_y      cartes_z           fx          fy          fz
             1    0       0.000000      0.000000      0.000000     0.000000    0.000000    0.000000
             2    0       2.708385      2.708386      2.708403     0.000000    0.000000    0.000000
 Energy
        -27.940525045000
 PlusStress:  xx          yy          zz          yz          xz          xy
        -0.49163    -0.49163    -0.49163     0.00000     0.00000     0.00000
 Feature   EFS_by	Qe
 Feature   mindist	4.691052
END_CFG

BEGIN_CFG
 Size
    1
 Supercell
         2.427325      2.427325      2.427325
        -2.427329      2.427329      2.427329
        -2.427329     -2.427329      2.427329
 AtomData:  id type       cartes_x      cartes_y      cartes_z           fx          fy          fz
             1    0       0.000000      0.000000      0.000000     0.000000    0.000000    0.000000
 Energy
        -13.966802118600
 PlusStress:  xx          yy          zz          yz          xz          xy
         0.29598     0.29608     0.29603     0.00005     0.00000    -0.00000
 Feature   EFS_by	Qe
 Feature   mindist	4.204251
END_CFG

BEGIN_CFG
 Size
    2
 Supercell
         4.956852      0.000000      0.000000
         0.000000      4.956852      0.000000
         0.000000      0.000000      4.956852
 AtomData:  id type       cartes_x      cartes_y      cartes_z           fx          fy          fz
             1    0       4.903793      0.322161      4.578909     0.075176   -0.349212    0.374078
             2    0       2.531485      2.156265      2.856369    -0.075176    0.349212   -0.374078
 Energy
        -27.888182991600
 PlusStress:  xx          yy          zz          yz          xz          xy
         0.67396     0.12390    -0.03534    -0.30125     0.06486    -0.06050
 Feature   EFS_by	Qe
 Feature   mindist	3.458168
END_CFG

BEGIN_CFG
 Size
    4
 Supercell
         5.059055      0.000000      0.000000
         0.000000      5.059055      0.000000
         0.000000      0.000000     10.118110
 AtomData:  id type       cartes_x      cartes_y      cartes_z           fx          fy          fz
             1    0       1.915524      2.578047      3.074797     0.176861    0.139890   -0.276107
             2    0       4.843017      0.378919      4.949766     0.105829   -0.421909   -0.160219
             3    0       4.805181      4.976143      9.942492     0.140003   -0.073446    0.273981
             4    0       3.613443      2.185000      7.328219    -0.422693    0.355465    0.162345
 Energy
        -55.694362430600
 PlusStress:  xx          yy          zz          yz          xz          xy
        -0.66409     0.64150     0.84170     0.09725    -0.30411    -0.26511
 Feature   EFS_by	Qe
 Feature   mindist	3.229678
END_CFG

BEGIN_CFG
 Size
    2
 Supercell
         5.161258      0.000000      0.000000
         0.000000      5.161258      0.000000
         0.000000      0.000000      5.161258
 AtomData:  id type       cartes_x      cartes_y      cartes_z           fx          fy          fz
             1    0       0.532768      0.000134      5.150699    -0.310154   -0.000121    0.011928
             2    0       2.047861      2.580495      2.591188     0.310154    0.000121   -0.011928
 Energy
        -27.923470444900
 PlusStress:  xx          yy          zz          yz          xz          xy
        -0.59419     0.19680     0.19655     0.00000    -0.01250     0.00013
 Feature   EFS_by	Qe
 Feature   mindist	3.937622
END_CFG

BEGIN_CFG
 Size
    2
 Supercell
         5.212364      0.000000      0.000000
         0.000000      5.212364      0.000000
         0.000000      0.000000      5.212370
 AtomData:  id type       cartes_x      cartes_y      cartes_z           fx          fy          fz
             1    0       0.000000      0.000000      0.000000     0.000000    0.000000    0.000000
             2    0       2.606183      2.606183      2.606200     0.000000    0.000000    0.000000
 Energy
        -27.980363602600
 PlusStress:  xx          yy          zz          yz          xz          xy
        -0.18138    -0.18138    -0.18138     0.00000     0.00000     0.00000
 Feature   EFS_by	Qe
 Feature   mindist	4.514032
END_CFG

BEGIN_CFG
 Size
    2
 Supercell
         5.161258      0.000000      0.000000
         0.000000      5.161258      0.000000
         0.000000      0.000000      5.161258
 AtomData:  id type       cartes_x      cartes_y      cartes_z           fx          fy          fz
             1    0       5.112136      0.356570      4.743649     0.060531   -0.320796    0.337069
             2    0       2.629751      2.224059      2.998238    -0.060531    0.320796   -0.337069
 Energy
        -27.867534311600
 PlusStress:  xx          yy          zz          yz          xz          xy
         0.35068    -0.16373    -0.29741    -0.32859     0.06072    -0.05719
 Feature   EFS_by	Qe
 Feature   mindist	3.563174
END_CFG

BEGIN_CFG
 Size
    2
 Supercell
         5.059055      0.000000      0.000000
         0.000000      5.059055      0.000000
         0.000000      0.000000      5.059055
 AtomData:  id type       cartes_x      cartes_y      cartes_z           fx          fy          fz
             1    0      -0.044520      0.429578      4.873582     0.053215   -0.330391    0.203907
             2    0       2.574048      2.099950      2.715000    -0.053215    0.330391   -0.203907
 Energy
        -27.946487195800
 PlusStress:  xx          yy          zz          yz          xz          xy
         0.32313    -0.36331     0.15847    -0.19497     0.03008    -0.05053
 Feature   EFS_by	Qe
 Feature   mindist	3.661365
END_CFG

BEGIN_CFG
 Size
    2
 Supercell
         5.263461      0.000000      0.000000
         0.000000      5.263461      0.000000
         0.000000      0.000000      5.263461
 AtomData:  id type       cartes_x      cartes_y      cartes_z           fx          fy          fz
             1    0       0.353599      5.025343      5.068862    -0.254702    0.203077    0.174235
             2    0       2.278131      2.869849      2.826329     0.254702   -0.203077   -0.174235
 Energy
        -27.929331777500
 PlusStress:  xx          yy          zz          yz          xz          xy
        -0.40420    -0.22546    -0.16495     0.13978    -0.17807    -0.20846
 Feature   EFS_by	Qe
 Feature   mindist	3.657723
END_CFG

BEGIN_CFG
 Size
    2
 Supercell
         4.854649      0.000000      0.000000
         0.000000      4.854649      0.000000
         0.000000      0.000000      4.854649