BEGIN_CFG
 Size
    2
 Supercell
         5.059055      0.000000      0.000000
         0.000000      5.059055      0.000000
         0.000000      0.000000      5.059055
 AtomData:  id type       cartes_x      cartes_y      cartes_z           fx          fy          fz
             1    0       0.172495     -0.101816     -0.034961    -0.148277    0.092242    0.032461
             2    0       2.357033      2.631344      2.564489     0.148277   -0.092242   -0.032461
 Energy
        -28.097341133400
 PlusStress:  xx          yy          zz          yz          xz          xy
        -0.19877    -0.12804    -0.09237     0.01106    -0.01795    -0.05100
 Feature   EFS_by	Qe
 Feature   mindist	4.028852
END_CFG

BEGIN_CFG
 Size
    2
 Supercell
         5.059055      0.000000      0.000000
         0.000000      5.059055      0.000000
         0.000000      0.000000      5.059055
 AtomData:  id type       cartes_x      cartes_y      cartes_z           fx          fy          fz
             1    0       0.234206      4.808573      0.268751    -0.241064    0.252785   -0.264924
             2    0       2.295322      2.780009      2.260776     0.241064   -0.252785    0.264924
 Energy
        -27.955811857500
 PlusStress:  xx          yy          zz          yz          xz          xy
         0.04957     0.01676    -0.02116    -0.19438     0.18510    -0.17619
 Feature   EFS_by	Qe
 Feature   mindist	3.511614
END_CFG

BEGIN_CFG
 Size
    2
 Supercell
         4.956852      0.000000      0.000000
         0.000000      4.956852      0.000000
         0.000000      0.000000      4.956852
 AtomData:  id type       cartes_x      cartes_y      cartes_z           fx          fy          fz
             1    0       0.487487      0.472697      4.654407    -0.656964   -0.658244    0.597546
             2    0       1.990939      2.005729      2.780871     0.656964    0.658244   -0.597546
 Energy
        -27.467356457700
 PlusStress:  xx          yy          zz          yz          xz          xy
         0.28672     0.35471     1.17426    -0.60251    -0.60005     0.64701
 Feature   EFS_by	Qe
 Feature   mindist	2.849683
END_CFG

BEGIN_CFG
 Size
    2
 Supercell
         5.059055      0.000000      0.000000
         0.000000      5.059055      0.000000
         0.000000      0.000000      5.059055
 AtomData:  id type       cartes_x      cartes_y      cartes_z           fx          fy          fz
             1    0       5.075957      0.911831      0.052170    -0.029616   -0.282446   -0.090532
             2    0       2.512626      1.617696      2.477357     0.029616    0.282446    0.090532
 Energy
        -27.656793827800
 PlusStress:  xx          yy          zz          yz          xz          xy
         1.15425    -1.09219     1.13356     0.05231     0.00571     0.01712
 Feature   EFS_by	Qe
 Feature   mindist	3.550833
END_CFG

BEGIN_CFG
 Size
    2
 Supercell
         5.263461      0.000000      0.000000
         0.000000      5.263461      0.000000
         0.000000      0.000000      5.263461
 AtomData:  id type       cartes_x      cartes_y      cartes_z           fx          fy          fz
             1    0       5.241577      0.545827      4.687366     0.040236   -0.458164    0.451703
             2    0       2.653614      2.085904      3.207826    -0.040236    0.458164   -0.451703
 Energy
        -27.613011660100
 PlusStress:  xx          yy          zz          yz          xz          xy
         0.97482    -0.31128    -0.38746    -0.50582     0.04458    -0.04525
 Feature   EFS_by	Qe
 Feature   mindist	3.355358
END_CFG

BEGIN_CFG
 Size
    2
 Supercell
         5.365664      0.000000      0.000000
         0.000000      5.365664      0.000000
         0.000000      0.000000      5.365664
 AtomData:  id type       cartes_x      cartes_y      cartes_z           fx          fy          fz
             1    0       5.148612      1.007481      5.053878     0.420495   -0.276049    0.512241
             2    0       2.899885      1.675351      2.994618    -0.420495    0.276049   -0.512241
 Energy
        -27.452881633100
 PlusStress:  xx          yy          zz          yz          xz          xy
         1.02448    -1.03541     0.69145    -0.30991     0.47997    -0.25445
 Feature   EFS_by	Qe
 Feature   mindist	3.121438
END_CFG

BEGIN_CFG
 Size
    2
 Supercell
         5.161258      0.000000      0.000000
         0.000000      5.161258      0.000000
         0.000000      0.000000      5.161258
 AtomData:  id type       cartes_x      cartes_y      cartes_z           fx          fy          fz
             1    0       0.194631     -0.032898      0.130654    -0.148039    0.027633   -0.105222
             2    0       2.385998      2.613527      2.449975     0.148039   -0.027633    0.105222
 Energy
        -28.070525673000
 PlusStress:  xx          yy          zz          yz          xz          xy
        -0.34197    -0.22988    -0.28125    -0.01288     0.06930    -0.01818
 Feature   EFS_by	Qe
 Feature   mindist	4.062724
END_CFG

BEGIN_CFG
 Size
    2
 Supercell
         4.956852      0.000000      0.000000
         0.000000      4.956852      0.000000
         0.000000      0.000000      4.956852
 AtomData:  id type       cartes_x      cartes_y      cartes_z           fx          fy          fz
             1    0       0.100729     -0.095695     -0.042052    -0.099160    0.094382    0.042262
             2    0       2.377697      2.574121      2.520478     0.099160   -0.094382   -0.042262
 Energy
        -28.118681118700
 PlusStress:  xx          yy          zz          yz          xz          xy
         0.00984     0.01443     0.04708     0.01275    -0.01331    -0.02975
 Feature   EFS_by	Qe
 Feature   mindist	4.018444
END_CFG

BEGIN_CFG
 Size
    2
 Supercell
         4.854649      0.000000      0.000000
         0.000000      4.854649      0.000000
         0.000000      0.000000      4.854649
 AtomData:  id type       cartes_x      cartes_y      cartes_z           fx          fy          fz
             1    0       4.826614      0.635336      4.638131     0.056688   -0.467047    0.353179
             2    0       2.455359      1.791989      2.643842    -0.056688    0.467047   -0.353179
 Energy
        -27.702039015700
 PlusStress:  xx          yy          zz          yz          xz          xy
         1.39956    -0.54688     1.00574    -0.27953     0.04202    -0.04654
 Feature   EFS_by	Qe
 Feature   mindist	3.307247
END_CFG

BEGIN_CFG
 Size
    2
 Supercell
         5.365664      0.000000      0.000000
         0.000000      5.365664      0.000000
         0.000000      0.000000      5.365664
 AtomData:  id type       cartes_x      cartes_y      cartes_z           fx          fy          fz
             1    0       5.222020      0.227667      4.135026     0.263635   -0.375713    0.084447
             2    0       2.826476      2.455165      3.913470    -0.263635    0.375713   -0.084447
 Energy
        -27.498933638500
 PlusStress:  xx          yy          zz          yz          xz          xy
         0.99541     0.77230    -1.17355    -0.07645     0.05361    -0.23672
 Feature   EFS_by	Qe
 Feature   mindist	3.278638
END_CFG

BEGIN_CFG
 Size
    2
 Supercell
         5.365664      0.000000      0.000000
         0.000000      5.365664      0.000000
         0.000000      0.000000      5.365664
 AtomData:  id type       cartes_x      cartes_y      cartes_z           fx          fy          fz
             1    0       5.003893      0.407582      0.310169     0.309656   -0.321452   -0.288772
             2    0       3.044603      2.275250      2.372663    -0.309656    0.321452    0.288772
 Energy
        -27.777272919700
 PlusStress:  xx          yy          zz          yz          xz          xy
        -0.23318    -0.32183    -0.13205     0.33062    -0.31715    -0.35615
 Feature   EFS_by	Qe
 Feature   mindist	3.403070
END_CFG

BEGIN_CFG
 Size
    2
 Supercell
         5.365664      0.000000      0.000000
         0.000000      5.365664      0.000000
         0.000000      0.000000      5.365664
 AtomData:  id type       cartes_x      cartes_y      cartes_z           fx          fy          fz
             1    0       0.155282     -0.140952     -0.066509    -0.092445    0.084861    0.041898
             2    0       2.527550      2.823784      2.749341     0.092445   -0.084861   -0.041898
 Energy
        -28.027352632200
 PlusStress:  xx          yy          zz          yz          xz          xy
        -0.58905    -0.58082    -0.54962     0.02411    -0.02610    -0.05333
 Feature   EFS_by	Qe
 Feature   mindist	4.230090
END_CFG

BEGIN_CFG
 Size
    2
 Supercell
         4.956852      0.000000      0.000000
         0.000000      4.956852      0.000000
         0.000000      0.000000      4.956852
 AtomData:  id type       cartes_x      cartes_y      cartes_z           fx          fy          fz
             1    0       0.068300      3.806890      0.101646    -0.156265    0.093803   -0.223414
             2    0       2.410126      3.628388      2.376780     0.156265   -0.093803    0.223414
 Energy
        -27.494726758300
 PlusStress:  xx          yy          zz          yz          xz          xy
         1.77554    -1.38796     1.71393    -0.03355     0.08107    -0.02348
 Feature   EFS_by	Qe
 Feature   mindist	3.269900
END_CFG

BEGIN_CFG
 Size
    2
 Supercell
         4.956852      0.000000      0.000000
         0.000000      4.956852      0.000000
         0.000000      0.000000      4.956852
 AtomData:  id type       cartes_x      cartes_y      cartes_z           fx          fy          fz
             1    0       0.163838     -0.067237     -0.003769    -0.156878    0.068244    0.003835
             2    0       2.314587      2.545663      2.482195     0.156878   -0.068244   -0.003835
 Energy
        -28.108906516700
 PlusStress:  xx          yy          zz          yz          xz          xy
        -0.03556     0.06117     0.08197     0.00078    -0.00190    -0.03344
 Feature   EFS_by	Qe
 Feature   mindist	4.028041
END_CFG

BEGIN_CFG
 Size
    2
 Supercell
         4.854649      0.000000      0.000000
         0.000000      4.854649      0.000000
         0.000000      0.000000      4.854649
 AtomData:  id type       cartes_x      cartes_y      cartes_z           fx          fy          fz
             1    0       0.335200      4.611488      4.492116    -0.465802    0.396041    0.479230
             2    0       2.092124      2.670485      2.789857     0.465802   -0.396041   -0.479230
 Energy
        -27.765739373700
 PlusStress:  xx          yy          zz          yz          xz          xy
         0.49646     0.83367     0.39152     0.35181    -0.40339    -0.34477
 Feature   EFS_by	Qe
 Feature   mindist	3.122813
END_CFG

BEGIN_CFG
 Size
    2
 Supercell
         5.263461      0.000000      0.000000
         0.000000      5.263461      0.000000
         0.000000      0.000000      5.263461
 AtomData:  id type       cartes_x      cartes_y      cartes_z           fx          fy          fz
             1    0       0.158709     -0.142745     -0.067661    -0.108547    0.098873    0.049087
             2    0       2.473021      2.774475      2.699392     0.108547   -0.098873   -0.049087
 Energy
        -28.054460070700
 PlusStress:  xx          yy          zz          yz          xz          xy
        -0.46043    -0.44878    -0.40848     0.02651    -0.02905    -0.05904
 Feature   EFS_by	Qe
 Feature   mindist	4.134361
END_CFG

BEGIN_CFG
 Size
    2
 Supercell
         5.059055      0.000000      0.000000
         0.000000      5.059055      0.000000
         0.000000      0.000000      5.059055
 AtomData:  id type       cartes_x      cartes_y      cartes_z           fx          fy          fz
             1    0       0.354197      4.841806      4.484913    -0.500545    0.392300    0.509068
             2    0       2.175330      2.746776      3.103669     0.500545   -0.392300   -0.509068
 Energy
        -27.650657660200
 PlusStress:  xx          yy          zz          yz          xz          xy
         0.45093     0.93943    -0.31909     0.39636    -0.49801    -0.40326
 Feature   EFS_by	Qe
 Feature   mindist	3.100566
END_CFG

BEGIN_CFG
 Size
    1
 Supercell
         2.555084      2.555089      2.555093
        -2.555102      2.555106      2.555111
        -2.555115     -2.555120      2.555129
 AtomData:  id type       cartes_x      cartes_y      cartes_z           fx          fy          fz
             1    0       0.000000      0.000000      0.000000     0.000000    0.000000    0.000000
 Energy
        -13.988890825100
 PlusStress:  xx          yy          zz          yz          xz          xy
         0.00447     0.00453     0.00447     0.00000     0.00000     0.00000
 Feature   EFS_by	Qe
 Feature   mindist	4.425543
END_CFG

BEGIN_CFG
 Size
    2
 Supercell
         5.416770      0.000000      0.000000
         0.000000      5.416770      0.000000
         0.000000      0.000000      5.416775
 AtomData:  id type       cartes_x      cartes_y      cartes_z           fx          fy          fz
             1    0       0.000000      0.000000      0.000000     0.000000    0.000000    0.000000
             2    0       2.708385      2.708386      2.708403     0.000000    0.000000    0.000000
 Energy
        -27.940525045000
 PlusStress:  xx          yy          zz          yz          xz          xy
        -0.49163    -0.49163    -0.49163     0.00000     0.00000     0.00000
 Feature   EFS_by	Qe
 Feature   mindist	4.691052
END_CFG

BEGIN_CFG
 Size
    1
 Supercell
         2.427325      2.427325      2.427325
        -2.427329      2.427329      2.427329
        -2.427329     -2.427329      2.427329
 AtomData:  id type       cartes_x      cartes_y      cartes_z           fx          fy          fz
             1    0       0.000000      0.000000      0.000000     0.000000    0.000000    0.000000
 Energy
        -13.966802118600
 PlusStress:  xx          yy          zz          yz          xz          xy
         0.29598     0.29608     0.29603     0.00005     0.00000    -0.00000
 Feature   EFS_by	Qe
 Feature   mindist	4.204251
END_CFG

BEGIN_CFG
 Size
    2
 Supercell
         5.212364      0.000000      0.000000
         0.000000      5.212364      0.000000
         0.000000      0.000000      5.212370
 AtomData:  id type       cartes_x      cartes_y      cartes_z           fx          fy          fz
             1    0       0.000000      0.000000      0.000000     0.000000    0.000000    0.000000
             2    0       2.606183      2.606183      2.606200     0.000000    0.000000    0.000000
 Energy
        -27.980363602600
 PlusStress:  xx          yy          zz          yz          xz          xy
        -0.18138    -0.18138    -0.18138     0.00000     0.00000     0.00000
 Feature   EFS_by	Qe
 Feature   mindist	4.514032
END_CFG

BEGIN_CFG
 Size
    2
 Supercell
         5.161258      0.000000      0.000000
         0.000000      5.161258      0.000000
         0.000000      0.000000      5.161258
 AtomData:  id type       cartes_x      cartes_y      cartes_z           fx          fy          fz
             1    0       0.166957     -0.051234      0.031112    -0.124459    0.041001   -0.024984
             2    0       2.413672      2.631863      2.549517     0.124459   -0.041001    0.024984
 Energy
        -28.089739360600
 PlusStress:  xx          yy          zz          yz          xz          xy
        -0.36356    -0.28959    -0.28441    -0.00467     0.01452    -0.02386
 Feature   EFS_by	Qe
 Feature   mindist	4.187049
END_CFG

BEGIN_CFG
 Size
    8
 Supercell
         4.956852      0.000000      0.000000
         0.000000      9.913704      0.000000
         0.000000      0.000000      9.913704
 AtomData:  id type       cartes_x      cartes_y      cartes_z           fx          fy          fz
             1    0       4.630144      1.854916      2.280293     0.245065   -0.108514   -0.175409
             2    0       2.508611      4.225530      3.771019    -0.098518    0.145217    0.443537
             3    0       0.186163      7.396291      3.041397    -0.018358    0.238401   -0.103832
             4    0       2.492540      5.573690      0.480470    -0.045443   -0.034264   -0.206162
             5    0       2.566231      0.684210      5.505795    -0.080593   -0.140640    0.116348
             6    0       4.815913      3.611398      8.123759     0.068210   -0.357412   -0.114346
             7    0       2.730261      9.323765      9.846350    -0.088970    0.130686   -0.141652
             8    0      -0.102455      6.985014      6.605730     0.018608    0.126525    0.181516
 Energy
       -111.770118967000
 PlusStress:  xx          yy          zz          yz          xz          xy
        -0.88296     1.72030     1.52573    -0.27151    -0.38110    -0.26569
 Feature   EFS_by	Qe
 Feature   mindist	3.513257
END_CFG

BEGIN_CFG
 Size
    2
 Supercell
         5.059055      0.000000      0.000000
         0.000000      5.059055      0.000000
         0.000000      0.000000      5.059055
 AtomData:  id type       cartes_x      cartes_y      cartes_z           fx          fy          fz
             1    0       4.790987      0.054227      0.035769     0.218484   -0.052810   -0.035022
             2    0       2.797595      2.475301      2.493759    -0.218484    0.052810    0.035022
 Energy
        -28.069052856800
 PlusStress:  xx          yy          zz          yz          xz          xy
        -0.26951    -0.02128    -0.01415     0.00630    -0.02699    -0.04090
 Feature   EFS_by	Qe
 Feature   mindist	3.984586
END_CFG

BEGIN_CFG
 Size
    2
 Supercell
         4.956852      0.000000      0.000000
         0.000000      4.956852      0.000000
         0.000000      0.000000      4.956852
 AtomData:  id type       cartes_x      cartes_y      cartes_z           fx          fy          fz
             1    0       0.409904      0.341476      4.808791    -0.424473   -0.399132    0.226158
             2    0       2.068521      2.136950      2.626486     0.424473    0.399132   -0.226158
 Energy
        -27.820253576000
 PlusStress:  xx          yy          zz          yz          xz          xy
        -0.00134     0.21671     0.75459    -0.19726    -0.20833     0.36086
 Feature   EFS_by	Qe
 Feature   mindist	3.276765
END_CFG

BEGIN_CFG
 Size
    1
 Supercell
         2.171817      2.171817      2.171817
        -2.171821      2.171821      2.171821
        -2.171821     -2.171821      2.171821
 AtomData:  id type       cartes_x      cartes_y      cartes_z           fx          fy          fz
             1    0       0.000000      0.000000      0.000000     0.000000    0.000000    0.000000
 Energy
        -13.722442783600
 PlusStress:  xx          yy          zz          yz          xz          xy
         1.25686     1.25705     1.25693     0.00008     0.00004    -0.00000
 Feature   EFS_by	Qe
 Feature   mindist	3.761698
END_CFG

BEGIN_CFG
 Size
    2
 Supercell
         5.263461      0.000000      0.000000
         0.000000      5.263461      0.000000
         0.000000      0.000000      5.263461
 AtomData:  id type       cartes_x      cartes_y      cartes_z           fx          fy          fz
             1    0       0.167161     -0.049173      0.034301    -0.109135    0.034411   -0.024076
             2    0       2.464570      2.680904      2.597430     0.109135   -0.034411    0.024076
 Energy
        -28.067568611700
 PlusStress:  xx          yy          zz          yz          xz          xy
        -0.50193    -0.44115    -0.43780    -0.00469     0.01500    -0.02156
 Feature   EFS_by	Qe
 Feature   mindist	4.273845
END_CFG

BEGIN_CFG
 Size
    4
 Supercell
         4.854649      0.000000      0.000000
         0.000000      4.854649      0.000000
         0.000000      0.000000      9.709298
 AtomData:  id type       cartes_x      cartes_y      cartes_z           fx          fy          fz
             1    0       2.511820      2.513051      2.944835    -0.094199    0.032713   -0.355432
             2    0       0.021950      0.144511      9.160252     0.027355   -0.186030    0.421606
             3    0       4.696912      0.108241      5.057322     0.171704   -0.186934   -0.117235
             4    0       2.478615      2.088846      7.110834    -0.104860    0.340252    0.051062
 Energy
        -55.950030681600
 PlusStress:  xx          yy          zz          yz          xz          xy
         1.03536     0.70509     1.08767    -0.08404     0.04769    -0.06198
 Feature   EFS_by	Qe
 Feature   mindist	3.613939
END_CFG

BEGIN_CFG
 Size
    2
 Supercell
         5.365664      0.000000      0.000000
         0.000000      5.365664      0.000000
         0.000000      0.000000      5.365664
 AtomData:  id type       cartes_x      cartes_y      cartes_z           fx          fy          fz
             1    0       5.021482      0.000384      0.006076     0.181128   -0.000256   -0.004383
             2    0       3.027014      2.682449      2.676757    -0.181128    0.000256    0.004383
 Energy
        -27.990613315400
 PlusStress:  xx          yy          zz          yz          xz          xy
        -0.65429    -0.42920    -0.42934    -0.00000    -0.00468    -0.00028
 Feature   EFS_by	Qe
 Feature   mindist	4.278307
END_CFG

BEGIN_CFG
 Size
    2
 Supercell
         4.956852      0.000000      0.000000
         0.000000      4.956852      0.000000
         0.000000      0.000000      4.956852
 AtomData:  id type       cartes_x      cartes_y      cartes_z           fx          fy          fz
             1    0       0.175074      4.809248      4.199938    -0.326736    0.286842    0.420361
             2    0       2.303352      2.626030      3.235340     0.326736   -0.286842   -0.420361
 Energy
        -27.633066723700
 PlusStress:  xx          yy          zz          yz          xz          xy
         1.18936     1.26585    -0.82604     0.21526    -0.24411    -0.19759
 Feature   EFS_by	Qe
 Feature   mindist	3.197883
END_CFG

BEGIN_CFG
 Size
    1
 Supercell
         2.299571      2.299571      2.299571
        -2.299575      2.299575      2.299575
        -2.299575     -2.299575      2.299575
 AtomData:  id type       cartes_x      cartes_y      cartes_z           fx          fy          fz
             1    0       0.000000      0.000000      0.000000     0.000000    0.000000    0.000000
 Energy
        -13.887733586000
 PlusStress:  xx          yy          zz          yz          xz          xy
         0.69781     0.69768     0.69786     0.00004    -0.00004     0.00004
 Feature   EFS_by	Qe
 Feature   mindist	3.982974
END_CFG

BEGIN_CFG
 Size
    2
 Supercell
         5.263461      0.000000      0.000000
         0.000000      5.263461      0.000000
         0.000000      0.000000      5.263461
 AtomData:  id type       cartes_x      cartes_y      cartes_z           fx          fy          fz
             1    0       0.268758      0.320571      0.291451    -0.237779   -0.263023   -0.249810
             2    0       2.362973      2.311159      2.340280     0.237779    0.263023    0.249810
 Energy
        -27.891725097700
 PlusStress:  xx          yy          zz          yz          xz          xy
        -0.18021    -0.26978    -0.21904     0.24407     0.21930     0.23175
 Feature   EFS_by	Qe
 Feature   mindist	3.542016
END_CFG

BEGIN_CFG
 Size
    1
 Supercell
         3.193853      3.193858      3.193864
        -3.193869      3.193875      3.193880
        -3.193886     -3.193891      3.193897
 AtomData:  id type       cartes_x      cartes_y      cartes_z           fx          fy          fz
             1    0       0.000000      0.000000      0.000000     0.000000    0.000000    0.000000
 Energy
        -13.737094482300
 PlusStress:  xx          yy          zz          yz          xz          xy
        -0.61299    -0.61299    -0.61299    -0.00000     0.00000     0.00012
 Feature   EFS_by	Qe
 Feature   mindist	5.531924
END_CFG

BEGIN_CFG
 Size
    4
 Supercell
         4.854649      0.000000      0.000000
         0.000000      4.854649      0.000000
         0.000000      0.000000      9.709298
 AtomData:  id type       cartes_x      cartes_y      cartes_z           fx          fy          fz
             1    0       2.391917      0.634540      2.648044     0.049506    0.132647   -0.165621
             2    0       0.074219      4.333801      4.893280    -0.082200   -0.018088    0.025665
             3    0       4.799581      1.533888      9.553430     0.028228   -0.045403   -0.000753
             4    0       2.443580      3.207068      7.178490     0.004466   -0.069156    0.140710
 Energy
        -55.632842793000
 PlusStress:  xx          yy          zz          yz          xz          xy
         2.21170    -1.20365     1.55514    -1.98500    -0.01933     0.00546
 Feature   EFS_by	Qe
 Feature   mindist	3.427496
END_CFG

BEGIN_CFG
 Size
    2
 Supercell
         5.263461      0.000000      0.000000
         0.000000      5.263461      0.000000
         0.000000      0.000000      5.263461
 AtomData:  id type       cartes_x      cartes_y      cartes_z           fx          fy          fz
             1    0       0.093225     -0.085317     -0.039814    -0.062462    0.057283    0.027293
             2    0       2.538506      2.717047      2.671545     0.062462   -0.057283   -0.027293
 Energy
        -28.076671908800
 PlusStress:  xx          yy          zz          yz          xz          xy
        -0.48265    -0.47917    -0.46552     0.00910    -0.00991    -0.02115
 Feature   EFS_by	Qe
 Feature   mindist	4.306928
END_CFG

BEGIN_CFG
 Size
    2
 Supercell
         4.956852      0.000000      0.000000
         0.000000      4.956852      0.000000
         0.000000      0.000000      4.956852
 AtomData:  id type       cartes_x      cartes_y      cartes_z           fx          fy          fz
             1    0       0.487487      0.472697      4.654407    -0.656964   -0.658244    0.597546
             2    0       1.990939      2.005729      2.780871     0.656964    0.658244   -0.597546
 Energy
        -27.467356457700
 PlusStress:  xx          yy          zz          yz          xz          xy
         0.28672     0.35471     1.17426    -0.60251    -0.60005     0.64701
 Feature   EFS_by	Qe
 Feature   mindist	2.849683
END_CFG

BEGIN_CFG
 Size
    2
 Supercell
         4.854649      0.000000      0.000000
         0.000000      4.854649      0.000000
         0.000000      0.000000      4.854649
 AtomData:  id type       cartes_x      cartes_y      cartes_z           fx          fy          fz
             1    0       0.478190      0.456718      4.532890    -0.671344   -0.671555    0.618445
             2    0       1.949135      1.970606      2.749083     0.671344    0.671555   -0.618445
 Energy
        -27.401454562500
 PlusStress:  xx          yy          zz          yz          xz          xy
         0.41851     0.52797     1.23537    -0.56758    -0.56579     0.60445
 Feature   EFS_by	Qe
 Feature   mindist	2.763603
END_CFG

BEGIN_CFG
 Size
    2
 Supercell
         5.059055      0.000000      0.000000
         0.000000      5.059055      0.000000
         0.000000      0.000000      5.059055
 AtomData:  id type       cartes_x      cartes_y      cartes_z           fx          fy          fz
             1    0       4.851894      0.147231      5.041278     0.179031   -0.134547    0.017246
             2    0       2.736688      2.382296      2.547305    -0.179031    0.134547   -0.017246
 Energy
        -28.076597213500
 PlusStress:  xx          yy          zz          yz          xz          xy
        -0.19271    -0.11627    -0.03115    -0.00808     0.01106    -0.08655
 Feature   EFS_by	Qe
 Feature   mindist	3.960998
END_CFG

BEGIN_CFG
 Size
    2
 Supercell
         4.956852      0.000000      0.000000
         0.000000      4.956852      0.000000
         0.000000      0.000000      4.956852
 AtomData:  id type       cartes_x      cartes_y      cartes_z           fx          fy          fz
             1    0       0.175074      4.809248      4.199938    -0.326736    0.286842    0.420361
             2    0       2.303352      2.626030      3.235340     0.326736   -0.286842   -0.420361
 Energy
        -27.633066723700
 PlusStress:  xx          yy          zz          yz          xz          xy
         1.18936     1.26585    -0.82604     0.21526    -0.24411    -0.19759
 Feature   EFS_by	Qe
 Feature   mindist	3.197883
END_CFG

BEGIN_CFG
 Size
    2
 Supercell
         4.854649      0.000000      0.000000
         0.000000      4.854649      0.000000
         0.000000      0.000000      4.854649
 AtomData:  id type       cartes_x      cartes_y      cartes_z           fx          fy          fz
             1    0       0.484464      0.437305      4.583129    -0.658356   -0.658660    0.570681
             2    0       1.942861      1.990019      2.698844     0.658356    0.658660   -0.570681
 Energy
        -27.478938440000
 PlusStress:  xx          yy          zz          yz          xz          xy
         0.32187     0.55403     1.38559    -0.54741    -0.54142     0.60550
 Feature   EFS_by	Qe
 Feature   mindist	2.844007
END_CFG

BEGIN_CFG
 Size
    1
 Supercell
         2.555084      2.555089      2.555093
        -2.555102      2.555106      2.555111
        -2.555115     -2.555120      2.555129
 AtomData:  id type       cartes_x      cartes_y      cartes_z           fx          fy          fz
             1    0       0.000000      0.000000      0.000000     0.000000    0.000000    0.000000
 Energy
        -13.988890825100
 PlusStress:  xx          yy          zz          yz          xz          xy
         0.00447     0.00453     0.00447     0.00000     0.00000     0.00000
 Feature   EFS_by	Qe
 Feature   mindist	4.425543
END_CFG

BEGIN_CFG
 Size
    2
 Supercell
         5.161258      0.000000      0.000000
         0.000000      5.161258      0.000000
         0.000000      0.000000      5.161258