LAMMPS (23 Jun 2022 - Update 2)
WARNING: Using I/O redirection is unreliable with parallel runs. Better use -in switch to read input file. (../lammps.cpp:530)
Lattice spacing in x,y,z = 5 5 5
Created orthogonal box = (0 0 0) to (100 100 100)
  3 by 2 by 4 MPI processor grid
Created 16000 atoms
  using lattice units in orthogonal box = (0 0 0) to (100 100 100)
  create_atoms CPU = 0.001 seconds
Neighbor list info ...
  update every 1 steps, delay 5 steps, check yes
  max neighbors/atom: 2000, page size: 100000
  master list distance cutoff = 7
  ghost atom cutoff = 7
  binsize = 3.5, bins = 29 29 29
  1 neighbor lists, perpetual/occasional/extra = 1 0 0
  (1) pair mlip, perpetual
      attributes: full, newton on
      pair build: full/bin/atomonly
      stencil: full/bin/3d
      bin: standard
Setting up Verlet run ...
  Unit style    : metal
  Current step  : 0
  Time step     : 0.001
Per MPI rank memory allocation (min/avg/max) = 4.395 | 4.397 | 4.397 Mbytes
   Step          Temp          PotEng         Press          Volume           Lx             Ly             Lz          Density    
         0   1             -223371.23     -4556.9033      1000000        100            100            100            1.038788     
        10   1.0776471     -224131.5      -6790.4977      890180.56      96.196548      96.196508      96.196509      1.1669408    
        20   0.95980394    -224195.32      230.53025      860821.84      95.127344      95.127041      95.127026      1.2067398    
        30   0.77757339    -224195         3.7184012      861635.1       95.159809      95.155887      95.155558      1.2056008    
        40   0.63617607    -224194.75     -4.3937795      861679.72      95.205429      95.138415      95.132356      1.2055384    
        50   0.58177763    -224210.07      44.310864      861783.31      96.042688      94.778175      94.672845      1.2053935    
        60   0.63617389    -224562.58     -476.7858       862071.82      99.782954      93.101103      92.796643      1.2049901    
        70   0.72519213    -224932.46     -1743.2666      836914.47      102.38516      90.512651      90.30978       1.2412116    
        80   0.95755381    -224995.95     -320.6639       826460.91      103.77807      89.253178      89.226332      1.2569112    
        90   1.252914      -225001.11     -26.529453      823763.66      104.28399      88.877145      88.878129      1.2610267    
       100   1.4757904     -225001.61      3.4087844      823474.3       104.34517      88.836138      88.835804      1.2614698    
       110   1.5725698     -225001.84      0.2702031      823518.67      104.33961      88.840867      88.840597      1.2614019    
       120   1.6022223     -225001.94      0.92002561     823536.08      104.34084      88.841317      88.840975      1.2613752    
       130   1.6686987     -225002.13      0.72696379     823565         104.34035      88.843083      88.84275       1.2613309    
       140   1.8509609     -225002.56      0.47208723     823590.9       104.34036      88.844442      88.844175      1.2612912    
       150   2.186394      -225003.34      0.28223124     823609.6       104.34143      88.844943      88.84478       1.2612626    
       160   2.67583       -225004.46      0.27713061     823622.72      104.34366      88.844645      88.844593      1.2612425    
       170   3.3030062     -225005.93      0.46399937     823637         104.34674      88.844064      88.844092      1.2612206    
       180   4.0604233     -225007.74      0.75399027     823660.54      104.3503       88.843814      88.84385       1.2611846    
       190   4.9748763     -225010         1.0550823      823698.97      104.35431      88.844223      88.844172      1.2611258    
       200   6.1201736     -225012.89      1.3253139      823754.45      104.35917      88.845242      88.845         1.2610408    
       210   7.6064661     -225016.74      1.5915248      823827.19      104.36554      88.846594      88.846068      1.2609295    
       220   9.5510177     -225021.89      1.9158824      823918.35      104.37411      88.848034      88.847159      1.26079      
       230   12.049603     -225028.73      2.3508235      824032.02      104.38549      88.849515      88.84825       1.260616     
       240   15.165497     -225037.67      2.9098142      824175.38      104.40027      88.851161      88.849481      1.2603968    
       250   18.935521     -225049.12      3.5686621      824357.04      104.41924      88.853094      88.850986      1.260119     
       260   23.375891     -225063.59      4.2868151      824585.15      104.44358      88.855248      88.852711      1.2597704    
       270   28.469467     -225081.63      5.0295906      824866.03      104.4749       88.857262      88.854318      1.2593414    
       280   34.131634     -225103.81      5.7768932      825204.04      104.51524      88.858494      88.855188      1.2588256    
       290   40.171982     -225130.53      6.5177183      825601.93      104.56687      88.858113      88.854512      1.2582189    
       300   46.278518     -225162         7.240252       826061.19      104.63212      88.855205      88.851407      1.2575194    
       310   52.043877     -225198.07      7.9285151      826581.84      104.71306      88.848865      88.845026      1.2567273    
       320   57.03335      -225238.27      8.5682058      827162.03      104.81125      88.838297      88.834663      1.2558458    
       330   60.873276     -225281.79      9.1542132      827797.85      104.92747      88.822927      88.819847      1.2548812    
       340   63.3273       -225327.62      9.6901273      828483.58      105.06148      88.802529      88.800431      1.2538426    
       350   64.333437     -225374.63      10.178463      829212.38      105.21197      88.777308      88.776628      1.2527406    
       360   63.993688     -225421.73      10.609578      829976.61      105.3767       88.747863      88.748979      1.2515871    
       370   62.52815      -225467.96      10.957558      830767.84      105.5527       88.715069      88.718245      1.250395     
       380   60.216052     -225512.58      11.18471       831576.49      105.73661      88.679916      88.685277      1.2491791    
       390   57.343809     -225555.07      11.250929      832391.68      105.92494      88.643371      88.650918      1.2479557    
       400   54.170379     -225595.16      11.123225      833201.37      106.11418      88.606314      88.615943      1.246743     
       410   50.90997      -225632.75      10.782415      833992.86      106.30098      88.569509      88.581053      1.2455598    
       420   47.726338     -225667.94      10.226696      834753.49      106.48219      88.533593      88.546864      1.2444248    
       430   44.732983     -225700.91      9.4736101      835471.36      106.65505      88.499067      88.513895      1.2433556    
       440   41.997        -225731.89      8.5600978      836136.03      106.81726      88.466296      88.482558      1.2423672    
       450   39.546519     -225761.13      7.5385657      836739.18      106.96707      88.435522      88.453141      1.2414717    
       460   37.380732     -225788.86      6.4693276      837275.23      107.10335      88.406882      88.425825      1.2406768    
       470   35.480195     -225815.29      5.4028873      837741.57      107.22555      88.380431      88.400694      1.2399862    
       480   33.815572     -225840.57      4.4078207      838138.59      107.33365      88.356169      88.377773      1.2393988    
       490   32.353647     -225864.85      3.5158915      838469.29      107.42822      88.334022      88.356958      1.23891      
       500   31.059448     -225888.23      2.7736979      838738.51      107.51046      88.313812      88.337936      1.2385123    
Loop time of 1.39136 on 24 procs for 500 steps with 16000 atoms

Performance: 31.049 ns/day, 0.773 hours/ns, 359.359 timesteps/s
96.7% CPU use with 24 MPI tasks x no OpenMP threads

MPI task timing breakdown:
Section |  min time  |  avg time  |  max time  |%varavg| %total
---------------------------------------------------------------
Pair    | 1.2095     | 1.2548     | 1.3186     |   2.4 | 90.18
Neigh   | 0.013566   | 0.014547   | 0.015233   |   0.5 |  1.05
Comm    | 0.023831   | 0.087624   | 0.13385    |   9.3 |  6.30
Output  | 0.0016638  | 0.0017579  | 0.0034523  |   0.8 |  0.13
Modify  | 0.026944   | 0.028867   | 0.029695   |   0.3 |  2.07
Other   |            | 0.003773   |            |       |  0.27

Nlocal:        666.667 ave         686 max         645 min
Histogram: 5 2 0 0 2 2 4 4 2 3
Nghost:        1425.71 ave        1518 max        1364 min
Histogram: 3 12 1 0 0 0 0 1 1 6
Neighs:              0 ave           0 max           0 min
Histogram: 24 0 0 0 0 0 0 0 0 0
FullNghs:        15512 ave       15923 max       15042 min
Histogram: 3 3 1 0 1 3 6 1 4 2

Total # of neighbors = 372288
Ave neighs/atom = 23.268
Neighbor list builds = 14
Dangerous builds = 8
Setting up Verlet run ...
  Unit style    : metal
  Current step  : 500
  Time step     : 0.001
Per MPI rank memory allocation (min/avg/max) = 4.399 | 4.4 | 4.401 Mbytes
   Step          Temp          PotEng         Press          Volume           Lx             Ly             Lz          Density    
       500   31.059448     -225888.23      2.7736979      838738.51      107.51046      88.313812      88.337936      1.2385123    
       510   43.293035     -225912.86      216.20277      838747.62      107.51131      88.313932      88.338072      1.2384989    
       520   57.187755     -225940.26      374.18448      838807.28      107.51677      88.314777      88.339023      1.2384108    
       530   72.102736     -225969.27      450.35433      838954.77      107.53069      88.316678      88.341221      1.2381931    
       540   87.522934     -225998.58      433.0195       839208.16      107.55606      88.319301      88.344437      1.2378192    
       550   102.70617     -226026.8       324.47352      839563.32      107.59488      88.321563      88.347673      1.2372956    
       560   117.05191     -226052.74      137.04851      839993.87      107.64807      88.321668      88.349194      1.2366614    
       570   130.12262     -226075.53     -102.63718      840453.84      107.7155       88.317244      88.346663      1.2359846    
       580   141.69484     -226094.83     -364.01504      840883.68      107.79599      88.305668      88.337425      1.2353528    
       590   151.73621     -226110.67     -612.19748      841218.56      107.8874       88.284513      88.318891      1.234861     
       600   160.3769      -226123.43     -811.04468      841398.92      107.9867       88.252075      88.289029      1.2345963    
       610   167.87622     -226133.7      -928.99716      841382.32      108.09021      88.207904      88.246909      1.2346206    
       620   174.57506     -226142.17     -951.48498      841154.18      108.19393      88.153134      88.193169      1.2349555    
       630   180.88676     -226149.6      -885.73028      840732.59      108.29407      88.090461      88.130113      1.2355748    
       640   187.20111     -226156.65     -751.98148      840163.82      108.38758      88.023642      88.061303      1.2364112    
       650   193.74374     -226163.67     -588.40852      839509.58      108.4726       87.956665      87.990718      1.2373748    
       660   200.49943     -226170.59     -424.17928      838829.87      108.54851      87.89284       87.921788      1.2383774    
       670   207.4026      -226177.3      -279.84693      838170.84      108.61585      87.834274      87.856786      1.2393511    
       680   214.46631     -226183.87     -175.3065       837560.3       108.67583      87.78185       87.796739      1.2402546    
       690   221.78045     -226190.56     -106.96494      837008.58      108.72981      87.735475      87.741698      1.2410721    
       700   229.42372     -226197.58     -60.837187      836514.93      108.77898      87.694554      87.691218      1.2418045    
       710   237.39815     -226204.96     -30.685528      836074.18      108.82419      87.658393      87.644741      1.2424591    
       720   245.54026     -226212.4      -12.812283      835680.02      108.866        87.626376      87.601776      1.2430451    
       730   253.51516     -226219.24     -11.121028      835325.98      108.90467      87.598023      87.561898      1.243572     
       740   261.03683     -226224.94     -26.50924       835004.63      108.94027      87.572921      87.524696      1.2440506    
       750   268.22912     -226229.78     -71.099265      834706.38      108.9727       87.550552      87.489742      1.2444951    
       760   275.19705     -226234.02     -141.44284      834417.17      109.00169      87.530225      87.456476      1.2449264    
       770   282.0257      -226237.86     -211.44253      834119.44      109.02677      87.51117       87.424187      1.2453708    
       780   288.68659     -226241.27     -253.81226      833797.55      109.04756      87.49271       87.392229      1.2458516    
       790   295.43704     -226244.8      -285.83409      833442.64      109.0639       87.474371      87.360247      1.2463821    
       800   302.67934     -226249.27     -328.09544      833048.85      109.07576      87.455683      87.328136      1.2469713    
       810   310.39527     -226254.69     -384.09007      832608.98      109.08297      87.436051      87.295849      1.2476301    
       820   318.81982     -226261.57     -463.38894      832113.21      109.08537      87.414821      87.26314       1.2483734    
       830   327.42883     -226268.87     -543.18709      831548.14      109.08259      87.39138       87.229492      1.2492217    
       840   335.57422     -226275.3      -603.36026      830901.8       109.0743       87.365251      87.194387      1.2501934    
       850   343.80566     -226282.06     -631.42461      830168.03      109.06042      87.336054      87.157604      1.2512985    
       860   352.66629     -226290.28     -612.6158       829349.33      109.04128      87.303502      87.119404      1.2525337    
       870   362.49629     -226300.68     -560.16723      828459.31      109.01776      87.267699      87.080399      1.2538793    
       880   372.59957     -226311.88     -518.14224      827518.33      108.99102      87.229234      87.041197      1.2553051    
       890   382.66589     -226323.34     -504.67212      826544.41      108.96208      87.188888      87.002091      1.2567842    
       900   395.024       -226340.02     -520.94892      825548.03      108.93155      87.147232      86.963107      1.2583011    
       910   408.79593     -226360.25     -502.95846      824533.86      108.89981      87.104358      86.924355      1.2598488    
       920   419.57942     -226375.19     -447.3244       823512.91      108.86754      87.060357      86.88635       1.2614107    
       930   425.78798     -226381.84     -442.96031      822501.07      108.8359       87.015507      86.849566      1.2629625    
       940   432.37163     -226390.62     -485.14726      821502.29      108.80546      86.970055      86.813714      1.264498     
       950   442.92058     -226409.13     -542.07326      820510.51      108.77595      86.924393      86.777989      1.2660264    
       960   453.84673     -226430.41     -640.26627      819514.63      108.74675      86.878921      86.741315      1.2675649    
       970   463.47219     -226451.58     -718.2122       818498.18      108.71742      86.833353      86.702579      1.269139     
       980   472.64728     -226474.96     -771.03956      817450.43      108.6881       86.786943      86.661266      1.2707657    
       990   478.82165     -226495.63     -854.99281      816365.7       108.65888      86.739035      86.617362      1.2724542    
      1000   482.34452     -226514.11     -913.82967      815235.6       108.62892      86.68909       86.571159      1.2742181    
      1010   488.07149     -226539.72     -878.57321      814059.67      108.59759      86.636982      86.523236      1.2760588    
      1020   497.4934      -226574.9      -827.23339      812854.37      108.56504      86.583569      86.474342      1.2779509    
      1030   507.34215     -226612.48     -777.27619      811639.46      108.53199      86.529853      86.425008      1.2798638    
      1040   514.41034     -226645.53     -777.1789       810430.25      108.49963      86.476351      86.375392      1.2817735    
      1050   519.58275     -226675.58     -862.76101      809228.58      108.46888      86.423029      86.324997      1.2836768    
      1060   525.29085     -226707.49     -932.24725      808021.15      108.43962      86.369487      86.272898      1.285595     
      1070   533.40872     -226745.11     -966.32112      806797.85      108.41112      86.315747      86.218581      1.2875443    
      1080   543.80191     -226788.3      -963.22986      805557.39      108.38249      86.262205      86.162204      1.289527     
      1090   554.20198     -226832.49     -956.7921       804305.32      108.35339      86.208772      86.104721      1.2915344    
      1100   564.36393     -226877.22     -1010.3038      803046.82      108.32401      86.154692      86.047289      1.2935584    
      1110   574.42765     -226922.86     -1111.3006      801774.96      108.2941       86.099026      85.990297      1.2956104    
      1120   582.02683     -226964.44     -1183.0573      800476.08      108.26253      86.041174      85.933769      1.2977127    
      1130   590.67397     -227009.13     -1257.1723      799142.41      108.22842      85.980544      85.878147      1.2998784    
      1140   601.4087      -227059.2      -1221.8082      797771.04      108.19159      85.916713      85.823675      1.3021129    
      1150   609.81239     -227105.45     -1150.3398      796378.33      108.15329      85.850377      85.770411      1.3043901    
      1160   618.62379     -227153.44     -1105.3335      794985.88      108.11557      85.782732      85.717856      1.3066748    
      1170   629.07983     -227205.85     -1099.4218      793607         108.07979      85.715264      85.664885      1.3089451    
      1180   636.58214     -227253.18     -1146.8444      792243.6       108.04569      85.649693      85.610194      1.3111977    
      1190   644.28845     -227301.83     -1222.7887      790886.98      108.01229      85.587214      85.552434      1.3134468    
      1200   658.4225      -227365.03     -1374.6372      789522.33      107.97855      85.527918      85.490729      1.315717     
      1210   670.39288     -227425.4      -1534.4711      788126.17      107.94289      85.47071       85.424885      1.3180478    
      1220   675.18806     -227472.24     -1806.4715      786674.23      107.90354      85.414117      85.355122      1.3204805    
      1230   684.64376     -227529.94     -2075.4105      785131.62      107.85855      85.356233      85.281076      1.323075     
      1240   701.64005     -227605        -2149.501       783475.68      107.80713      85.295559      85.202362      1.3258714    
      1250   714.19582     -227672.72     -1997.5009      781727.12      107.75068      85.232087      85.120082      1.3288371    
      1260   718.78064     -227724.96     -1765.0558      779945.5       107.69205      85.16746       85.0368        1.3318725    
      1270   724.64573     -227780.41     -1620.4954      778191.92      107.63425      85.103378      84.955094      1.3348738    
      1280   735.43606     -227846.93     -1555.6891      776498.12      107.57941      85.040268      84.876336      1.3377856    
      1290   747.1011      -227916.63     -1573.9243      774867.81      107.52831      84.977778      84.800698      1.3406003    
      1300   753.4119      -227976.51     -1614.2881      773287.37      107.47998      84.91591       84.72748       1.3433402    
      1310   760.09379     -228038.15     -1732.7845      771736.86      107.43299      84.854549      84.655747      1.3460391    
      1320   774.56135     -228117.34     -1843.2574      770188.78      107.38694      84.791998      84.584515      1.3487446    
      1330   793.10523     -228207.13     -1860.7447      768624.88      107.34235      84.726398      84.513209      1.3514889    
      1340   805.64988     -228286.67     -1911.4489      767045.28      107.29937      84.657443      84.442035      1.3542721    
      1350   811.43935     -228353.83     -2070.6378      765445.97      107.25698      84.585333      84.371141      1.3571016    
      1360   814.50896     -228416.49     -2197.6967      763810.48      107.21328      84.510425      84.299838      1.3600075    
      1370   818.72862     -228482.42     -2302.8981      762130.24      107.16684      84.433863      84.227151      1.3630059    
      1380   829.27147     -228562.67     -2325.6776      760406.38      107.11782      84.356578      84.152124      1.3660958    
      1390   843.4793      -228652.22     -2184.2239      758655.99      107.06734      84.279167      84.075146      1.3692477    
      1400   854.64951     -228737.13     -2013.5368      756917.96      107.01675      84.202821      83.998287      1.3723918    
      1410   861.04535     -228813.59     -2195.6754      755219.31      106.96697      84.128545      83.922808      1.3754786    
      1420   867.64902     -228891.92     -2466.8819      753527.64      106.91712      84.055123      83.847045      1.3785665    
      1430   879.41977     -228982.59     -2380.8181      751806.97      106.86676      83.981164      83.768709      1.3817217    
      1440   889.98108     -229072.35     -2144.1902      750081.31      106.81734      83.907511      83.688495      1.3849005    
      1450   894.94988     -229151.69     -2002.1343      748393.88      106.76968      83.835469      83.609284      1.3880231    
      1460   897.16683     -229226.12     -2109.5026      746759.93      106.72364      83.764753      83.533191      1.3910602    
      1470   903.983       -229311.14     -2375.2568      745150.59      106.67814      83.692913      83.460298      1.3940645    
      1480   915.3839      -229407.43     -2569.4647      743519.62      106.63093      83.618044      83.389087      1.3971225    
      1490   927.31376     -229506.83     -2638.2505      741844.27      106.58011      83.540427      83.318201      1.4002777    
      1500   937.11645     -229603.81     -2741.3777      740125.81      106.52454      83.461526      83.247183      1.4035289    
      1510   943.94135     -229696.41     -2860.5867      738364.84      106.46448      83.382742      83.17448       1.4068763    
      1520   948.34329     -229785.35     -2856.8772      736562.55      106.40085      83.305231      83.09832       1.4103188    
      1530   954.18121     -229878.29     -2558.284       734743.2       106.33597      83.229714      83.018902      1.413811     
      1540   962.00081     -229976.26     -2344.7391      732962.29      106.27421      83.156624      82.938636      1.4172461    
      1550   975.43405     -230087.54     -2354.8843      731247.77      106.21932      83.084358      82.859397      1.4205691    
      1560   986.72749     -230196.64     -2354.8855      729588.06      106.17264      83.010205      82.78156       1.4238007    
      1570   989.27473     -230289.29     -2539.1237      727967.1       106.13314      82.933027      82.705276      1.4269711    
      1580   988.54863     -230376.09     -2837.0949      726347.84      106.09717      82.8523        82.629723      1.4301522    
      1590   992.05132     -230472.48     -2935.8453      724690.95      106.06034      82.768291      82.553565      1.433422     
      1600   996.67345     -230572.27     -2957.1566      722994.1       106.02006      82.683518      82.476032      1.4367863    
      1610   1001.0724     -230672.58     -2911.9004      721271.93      105.97543      82.600864      82.396594      1.4402168    
      1620   1012.1723     -230788.16     -2898.4747      719543.15      105.92686      82.521925      82.315457      1.4436771    
      1630   1023.7555     -230906.73     -2920.6509      717818.46      105.87519      82.446891      82.233002      1.4471458    
      1640   1039.5385     -231012.93     -2952.5514      716104.65      105.82196      82.375086      82.149475      1.4506092    
      1650   1040.1099     -231113.28     -3242.4191      714389.29      105.76809      82.304537      82.06472       1.4540923    
      1660   1037.3981     -231207.69     -3400.1199      712638.21      105.71315      82.232021      81.978343      1.4576653    
      1670   1030.8305     -231294.15     -3394.783       710844.7       105.65704      82.155689      81.891468      1.4613431    
      1680   1030.3457     -231393.06     -3209.8405      709029.68      105.60152      82.075393      81.805266      1.4650839    
      1690   1039.0156     -231511.5      -2775.2828      707237.86      105.5498       81.993184      81.720372      1.4687958    
      1700   1046.9767     -231629.6      -2475.7161      705528.86      105.50401      81.912435      81.638683      1.4723536    
      1710   1051.2137     -231741.09     -2542.4009      703920.67      105.46311      81.834374      81.561909      1.4757174    
      1720   1050.3043     -231842.86     -2754.4384      702376.78      105.42395      81.75806       81.489243      1.4789612    
      1730   1042.8719     -231931.15     -3087.0159      700843.2       105.38287      81.682487      81.418272      1.4821974    
      1740   1037.662      -232023.68     -3023.2002      699275.73      105.33754      81.60673       81.346584      1.4855199    
      1750   1047.1904     -232148.05     -2648.2545      697693.39      105.28951      81.531169      81.274788      1.488889     
      1760   1062.8113     -232285.92     -2323.4573      696151.05      105.24212      81.457962      81.204547      1.4921876    
      1770   1063.364      -232394.14     -2491.55        694677.31      105.19667      81.389025      81.136313      1.4953533    
      1780   1075.0813     -232500.72     -2876.3552      693236.99      105.15118      81.322732      81.069149      1.4984601    
      1790   1072.7694     -232606.33     -3216.7534      691761.98      105.10231      81.255688      81.001047      1.5016552    
      1800   1068.8513     -232711.28     -3780.9468      690194.75      105.04793      81.184879      80.9299        1.505065     
      1810   1070.3302     -232826.29     -3821.5717      688509.88      104.98785      81.108592      80.854512      1.5087481    
      1820   1067.2635     -232932.3      -3524.7199      686745.07      104.92484      81.028035      80.775923      1.5126253    
      1830   1067.1469     -233044.41     -3033.3909      684978.11      104.86176      80.94703       80.697233      1.5165273    
      1840   1075.6995     -233174.67     -2667.829       683285.63      104.8006       80.869094      80.622439      1.5202837    
      1850   1075.5342     -233286.67     -2822.9693      681692.58      104.74139      80.795822      80.552928      1.5238364    
      1860   1079.697      -233385.68     -3002.4346      680157.3       104.68273      80.725917      80.486182      1.5272761    
      1870   1074.5804     -233489.69     -2972.8161      678644.92      104.62574      80.65672       80.419892      1.5306797    
      1880   1078.8536     -233613.27     -2701.9451      677147.45      104.57348      80.586403      80.352596      1.5340647    
      1890   1084.0159     -233733.21     -2819.7575      675676.58      104.52668      80.516581      80.283518      1.5374042    
      1900   1080.0379     -233840.9      -2812.1478      674230.66      104.48193      80.449389      80.212963      1.5407012    
      1910   1072.8357     -233940.59     -2864.5043      672801.04      104.43526      80.385104      80.142691      1.543975     
      1920   1069.0558     -234040.54     -2786.8684      671380.17      104.3852       80.322113      80.074544      1.5472426    
      1930   1073.8789     -234165.93     -2686.4286      669970.03      104.33321      80.259743      80.008299      1.5504992    
      1940   1075.6651     -234283.06     -2384.2911      668585.53      104.28232      80.198949      79.942477      1.5537099    
      1950   1072.2986     -234393.13     -2024.8088      667255.02      104.23482      80.141467      79.876997      1.556808     
      1960   1069.7188     -234503.42     -2097.6573      666000.7       104.19135      80.088125      79.813231      1.5597401    
      1970   1061.201      -234601.01     -2497.4372      664792.68      104.15101      80.036911      79.75032       1.5625743    
      1980   1053.6862     -234700.43     -2918.8187      663567.89      104.11163      79.984502      79.685677      1.5654585    
      1990   1055.7386     -234817.83     -3101.4726      662279.36      104.07142      79.928522      79.61739       1.5685042    
      2000   1053.1605     -234924.4      -2938.0529      660926.04      104.02939      79.868659      79.546378      1.5717159    
      2010   1049.7738     -235032.54     -2706.5357      659543.64      103.98538      79.806861      79.475091      1.5750102    
      2020   1054.7007     -235153.7      -2459.5873      658177.04      103.93955      79.74594       79.405998      1.5782805    
      2030   1050.31       -235260.12     -2160.5737      656858.39      103.89336      79.687599      79.340183      1.5814489    
      2040   1040.0025     -235353.38     -1933.8368      655607.75      103.84984      79.631794      79.277832      1.5844657    
      2050   1031.2959     -235448.28     -1690.139       654436.56      103.81089      79.577943      79.219473      1.5873013    
      2060   1028.4128     -235554.8      -1661.1053      653348.35      103.77603      79.525942      79.16604       1.589945     
      2070   1017.5724     -235643.46     -2020.3228      652317.05      103.74338      79.474984      79.116647      1.5924587    
      2080   1006.2895     -235725.77     -1857.4396      651293.39      103.71182      79.422723      79.068527      1.5949617    
      2090   1002.5945     -235818.1      -1570.3285      650277.84      103.68251      79.369018      79.02099       1.5974525    
      2100   1001.3064     -235923.55     -1065.2759      649314.21      103.65587      79.317144      78.97578       1.5998233    
      2110   999.95795     -236028.67     -795.90262      648443.68      103.63139      79.270187      78.935263      1.601971     
      2120   991.63621     -236118.42     -766.01714      647673.01      103.60955      79.227741      78.900319      1.6038772    
      2130   985.87611     -236212.64     -787.20698      646981.66      103.59116      79.187938      78.869711      1.6055911    
      2140   978.14103     -236301.24     -782.92394      646343.46      103.57661      79.149245      78.8415        1.6071764    
      2150   971.97193     -236377.7      -751.13333      645746.37      103.56656      79.110844      78.814548      1.6086625    
      2160   968.44521     -236450.11     -606.06347      645186.72      103.55914      79.07372       78.788856      1.6100579    
      2170   960.51179     -236537.12     -725.15583      644663.85      103.55159      79.039629      78.764708      1.6113638    
      2180   951.60094     -236619.5      -1127.6396      644148.57      103.54154      79.008249      78.740652      1.6126528    
      2190   937.34229     -236690.54     -1374.0874      643593.31      103.52657      78.978086      78.714199      1.6140441    
      2200   933.09652     -236771.3      -1440.6507      642974.52      103.50584      78.948614      78.683632      1.6155974    
      2210   926.30728     -236854.63     -1365.6796      642300.98      103.47993      78.91971       78.649685      1.6172916    
      2220   912.15551     -236922.42     -1145.5835      641587.18      103.44948      78.891055      78.613944      1.6190909    
      2230   902.57183     -236994.76     -939.32937      640864.44      103.41631      78.863826      78.577697      1.6209169    
      2240   897.55139     -237078.17     -611.53115      640165.84      103.38339      78.838954      78.541803      1.6226858    
      2250   885.10269     -237145.39     -264.51743      639521.19      103.35377      78.816506      78.507549      1.6243215    
      2260   871.63969     -237207.88     -141.96064      638952.99      103.32911      78.796696      78.476247      1.6257659    
      2270   869.0984      -237275.94     -127.4907       638471.01      103.3089       78.779715      78.449296      1.6269932    
      2280   859.41148     -237343.95     -230.85185      638063.73      103.29208      78.764381      78.427284      1.6280317    
      2290   854.506       -237408.41     -193.75964      637707.87      103.27727      78.74961       78.409488      1.6289402    
      2300   841.44        -237462.88     -220.10783      637394.7       103.26375      78.735522      78.395264      1.6297405    
      2310   833.26115     -237527.91     -595.88446      637107.53      103.25155      78.721384      78.383278      1.6304751    
      2320   907.33428     -237594.19     -761.73795      636794.8       103.23957      78.704607      78.370602      1.6312759    
      2330   894.07108     -237651.16     -827.51198      636436.6       103.22707      78.685356      78.355162      1.632194     
      2340   890.4858      -237711.73     -809.02531      636030.91      103.21535      78.662148      78.337217      1.6332351    
      2350   1341.5768     -237759.12      937.36592      635600.73      103.20734      78.634802      78.317532      1.6343405    
      2360   2648902.7     -237703.1       9108781.5      641095.76      103.32924      79.121494      78.416087      1.620332     
      2370   1.6794296     -237552.94     -46227.1        652633.77      103.53847      80.164217      78.629814      1.5916859    
      2380   1.5245168     -237701.39     -42014.021      650888.39      103.47008      80.060001      78.573512      1.5959541    
      2390   1.3855359     -237848.15     -36730.945      648718.13      103.38818      79.92485       78.506086      1.6012933    
      2400   1.2626841     -237981.29     -31166.321      646485.27      103.30563      79.782077      78.438509      1.6068239    
      2410   1.1553969     -238097.62     -25739.887      644361.21      103.22928      79.641767      78.376452      1.6121206    
      2420   1.0633709     -238197.45     -20724.786      642441.73      103.16295      79.509799      78.323004      1.6169373    
      2430   0.98642714    -238282.92     -16282.059      640771.79      103.10829      79.389291      78.279467      1.6211512    
      2440   0.92299913    -238356.77     -12485.977      639362.95      103.06555      79.281541      78.24595       1.6247235    
      2450   0.85390371    -238421.49     -9329.0548      638205.99      103.03403      79.186705      78.221819      1.6276688    
      2460   0.77311998    -238476.92     -6762.6637      637281.22      103.01271      79.104288      78.206036      1.6300307    
      2470   0.71990374    -238526.19     -4768.1076      636562.31      103.00027      79.033384      78.197337      1.6318716    
      2480   0.67169218    -238570.66     -3260.2231      636018.49      102.99513      78.972834      78.194339      1.633267     
      2490   0.62785722    -238611.23     -2158.2104      635618.64      102.99572      78.921392      78.195672      1.6342944    
      2500   0.58790547    -238648.56     -1381.5194      635333.19      103.00055      78.877816      78.200064      1.6350287    
      2510   0.55141689    -238683.11     -855.27431      635135.48      103.00832      78.840932      78.206402      1.6355376    
      2520   0.51805231    -238715.24     -514.60214      635002.57      103.01791      78.809683      78.213762      1.63588      
      2530   0.48750899    -238745.23     -305.86827      634915.57      103.0284       78.783145      78.221421      1.6361041    
      2540   0.45951232    -238773.3      -186.13061      634859.63      103.03911      78.760536      78.228852      1.6362483    
      2550   0.43381994    -238799.64     -123.13254      634823.6       103.04953      78.741207      78.235702      1.6363412    
      2560   0.41021647    -238824.42     -93.688181      634799.52      103.05933      78.724631      78.241767      1.6364032    
      2570   0.38851244    -238847.79     -82.539012      634782.06      103.06831      78.710382      78.246958      1.6364482    
      2580   0.36851978    -238869.87     -80.039472      634767.85      103.07639      78.698117      78.251269      1.6364849    
      2590   0.3500775     -238890.77     -80.706105      634754.93      103.08354      78.687553      78.254753      1.6365182    
      2600   0.33303932    -238910.59     -81.564949      634742.3       103.0898       78.678454      78.257495      1.6365507    
      2610   0.31726652    -238929.42     -81.541812      634729.54      103.09522      78.670623      78.259594      1.6365836    
      2620   0.30264146    -238947.33     -80.464934      634716.56      103.09989      78.663884      78.261155      1.6366171    
      2630   0.28904064    -238964.4      -78.521475      634703.43      103.10388      78.658085      78.262276      1.636651     
      2640   0.27632064    -238980.69     -75.923288      634690.27      103.10727      78.65309       78.263047      1.6366849    
      2650   0.26428686    -238996.24     -72.717351      634677.18      103.11014      78.64878       78.263543      1.6367186    
      2660   0.25276963    -239011.1      -68.968896      634664.3       103.11256      78.645053      78.263828      1.6367519    
      2670   0.24185597    -239025.29     -65.087768      634651.74      103.11459      78.64182       78.263954      1.6367843    
      2680   0.23174712    -239038.85     -61.810148      634639.58      103.1163       78.639005      78.263963      1.6368156    
      2690   0.2223848     -239051.85     -59.402666      634627.8       103.11772      78.636535      78.263888      1.636846     
      2700   0.2136426     -239064.31     -57.563945      634616.33      103.11891      78.634343      78.263756      1.6368756    
      2710   0.20546285    -239076.27     -55.970227      634605.1       103.11989      78.632375      78.263585      1.6369046    
      2720   0.19779943    -239087.77     -54.501385      634594.05      103.1207       78.630583      78.263391      1.6369331    
      2730   0.19060971    -239098.83     -53.003821      634583.15      103.12136      78.628933      78.263185      1.6369612    
      2740   0.18385351    -239109.48     -51.486489      634572.39      103.12191      78.627399      78.262972      1.6369889    
      2750   0.17749476    -239119.74     -50.072467      634561.77      103.12235      78.625958      78.262758      1.6370163    
      2760   0.17149923    -239129.64     -48.655997      634551.3       103.12272      78.624597      78.262544      1.6370433    
      2770   0.16583733    -239139.2      -47.253615      634540.97      103.12301      78.623304      78.262331      1.63707      
      2780   0.16047963    -239148.44     -45.971587      634530.79      103.12326      78.622069      78.262121      1.6370963    
      2790   0.15540776    -239157.37     -44.797043      634520.75      103.12345      78.620886      78.261912      1.6371221    
      2800   0.15060075    -239166.01     -43.698717      634510.85      103.12361      78.619749      78.261705      1.6371477    
      2810   0.14603898    -239174.38     -42.660973      634501.08      103.12373      78.618653      78.261497      1.6371729    
      2820   0.14170639    -239182.48     -41.661619      634491.43      103.12382      78.617595      78.261289      1.6371978    
      2830   0.13759153    -239190.34     -40.749948      634481.88      103.12389      78.616572      78.26108       1.6372224    
      2840   0.13368001    -239197.97     -39.876339      634472.45      103.12393      78.615581      78.26087       1.6372468    
      2850   0.12995814    -239205.36     -39.140992      634463.11      103.12396      78.61462       78.260657      1.6372709    
      2860   0.12641496    -239212.55     -38.414478      634453.86      103.12396      78.613686      78.260442      1.6372948    
      2870   0.12303861    -239219.54     -37.665461      634444.68      103.12395      78.612776      78.260225      1.6373185    
      2880   0.11981821    -239226.33     -36.934964      634435.58      103.12392      78.61189       78.260006      1.6373419    
      2890   0.11674568    -239232.93     -36.231177      634426.56      103.12388      78.611026      78.259785      1.6373652    
      2900   0.11381168    -239239.37     -35.652602      634417.62      103.12382      78.610183      78.259564      1.6373883    
      2910   0.11100971    -239245.63     -35.100413      634408.74      103.12375      78.60936       78.259342      1.6374112    
      2920   0.10833193    -239251.74     -34.544541      634399.92      103.12367      78.608555      78.259119      1.637434     
      2930   0.10577123    -239257.69     -33.983444      634391.16      103.12357      78.607767      78.258894      1.6374566    
      2940   0.10332197    -239263.49     -33.4554        634382.46      103.12347      78.606996      78.258668      1.637479     
      2950   0.10097765    -239269.16     -32.935049      634373.81      103.12335      78.606242      78.258441      1.6375014    
      2960   0.098731746   -239274.69     -32.473136      634365.21      103.12322      78.605502      78.258213      1.6375236    
      2970   0.096579298   -239280.09     -32.130755      634356.66      103.12309      78.604777      78.257983      1.6375456    
      2980   0.094515814   -239285.37     -31.782125      634348.14      103.12295      78.604064      78.25775       1.6375676    
      2990   0.092535734   -239290.53     -31.413207      634339.65      103.1228       78.603364      78.257514      1.6375895    
      3000   0.0906352     -239295.58     -31.088838      634331.19      103.12264      78.602673      78.257276      1.6376114    
      3010   0.088810671   -239300.52     -30.806573      634322.75      103.12248      78.601993      78.257036      1.6376332    
      3020   0.087058762   -239305.35     -30.477458      634314.32      103.12231      78.601322      78.256794      1.6376549    
      3030   0.085375676   -239310.09     -30.050795      634305.91      103.12213      78.600659      78.256551      1.6376767    
      3040   0.083758151   -239314.72     -29.608872      634297.53      103.12195      78.600005      78.256306      1.6376983    
      3050   0.082202745   -239319.27     -29.162247      634289.19      103.12176      78.59936       78.256061      1.6377198    
      3060   0.080706857   -239323.73     -28.776306      634280.9       103.12157      78.598723      78.255816      1.6377412    
      3070   0.079267904   -239328.1      -28.420609      634272.65      103.12137      78.598096      78.255572      1.6377625    
      3080   0.077882372   -239332.38     -28.141396      634264.44      103.12117      78.597476      78.255327      1.6377837    
      3090   0.076548435   -239336.59     -27.831671      634256.26      103.12097      78.596864      78.255082      1.6378048    
      3100   0.075263587   -239340.73     -27.530243      634248.12      103.12076      78.59626       78.254836      1.6378259    
      3110   0.074026267   -239344.79     -27.310162      634240         103.12055      78.595661      78.25459       1.6378468    
      3120   0.072834606   -239348.77     -27.101995      634231.91      103.12034      78.59507       78.254343      1.6378677    
      3130   0.071683885   -239352.69     -26.923371      634223.83      103.12012      78.594484      78.254095      1.6378886    
      3140   0.070570322   -239356.55     -26.827578      634215.75      103.1199       78.593905      78.253845      1.6379095    
      3150   0.069495955   -239360.33     -26.642305      634207.67      103.11967      78.593331      78.253594      1.6379303    
      3160   0.068459552   -239364.06     -26.417643      634199.59      103.11943      78.592763      78.253342      1.6379512    
      3170   0.067458415   -239367.73     -26.229037      634191.51      103.11919      78.5922        78.253088      1.6379721    
      3180   0.066492355   -239371.34     -26.035074      634183.43      103.11894      78.591643      78.252832      1.637993     
      3190   0.065560637   -239374.89     -25.843615      634175.35      103.11869      78.59109       78.252575      1.6380138    
      3200   0.064661687   -239378.4      -25.709282      634167.28      103.11844      78.590543      78.252317      1.6380347    
      3210   0.063796611   -239381.84     -25.500184      634159.2       103.11818      78.59          78.252058      1.6380555    
      3220   0.062964627   -239385.24     -25.277942      634151.13      103.11792      78.58946       78.251799      1.6380764    
      3230   0.062166238   -239388.6      -25.028971      634143.07      103.11765      78.588925      78.25154       1.6380972    
      3240   0.061400719   -239391.9      -24.813338      634135.02      103.11738      78.588394      78.251283      1.638118     
      3250   0.060667321   -239395.16     -24.615584      634126.99      103.1171       78.587866      78.251028      1.6381387    
      3260   0.059966952   -239398.38     -24.441104      634118.98      103.11682      78.587342      78.250774      1.6381594    
      3270   0.059298806   -239401.56     -24.255577      634110.98      103.11653      78.586821      78.250523      1.6381801    
      3280   0.058662872   -239404.7      -24.066385      634102.99      103.11624      78.586302      78.250273      1.6382007    
      3290   0.05805802    -239407.8      -23.877519      634095.01      103.11595      78.585786      78.250026      1.6382213    
      3300   0.057484127   -239410.87     -23.673882      634087.05      103.11565      78.585273      78.249781      1.6382419    
      3310   0.056939106   -239413.91     -23.486252      634079.1       103.11535      78.584763      78.249538      1.6382625    
      3320   0.056424572   -239416.91     -23.319483      634071.17      103.11504      78.584255      78.249297      1.6382829    
      3330   0.055942833   -239419.88     -23.256105      634063.25      103.11473      78.583748      78.249057      1.6383034    
      3340   0.055508146   -239422.83     -23.244309      634055.33      103.11442      78.583244      78.248818      1.6383239    
      3350   0.055155237   -239425.75     -23.249896      634047.4       103.11411      78.58274       78.248579      1.6383444    
      3360   0.054961535   -239428.65     -23.374812      634039.44      103.11379      78.582237      78.248339      1.6383649    
      3370   0.055129994   -239431.54     -23.717952      634031.44      103.11347      78.581732      78.248097      1.6383856    
      3380   0.056210324   -239434.47     -24.612542      634023.34      103.11315      78.581223      78.247853      1.6384065    
      3390   0.059608562   -239437.51     -26.749569      634015.06      103.11281      78.580701      78.247604      1.6384279    
      3400   0.059645515   -239440.72     -28.033734      634006.41      103.11246      78.580154      78.247345      1.6384503    
      3410   0.049254282   -239443.45     -20.868591      633997.48      103.1121       78.579618      78.247055      1.6384733    
      3420   0.048667877   -239446.01     -18.123811      633989         103.11173      78.579168      78.246732      1.6384953    
      3430   0.048118254   -239448.53     -17.317102      633981.14      103.11138      78.578792      78.246401      1.6385156    
      3440   0.047581343   -239451.03     -17.952256      633973.77      103.11105      78.578457      78.246078      1.6385346    
      3450   0.047058161   -239453.5      -19.276148      633966.68      103.11073      78.57813       78.24577       1.638553     
      3460   0.046548082   -239455.93     -20.531401      633959.61      103.11042      78.577787      78.245478      1.6385712    
      3470   0.046051423   -239458.34     -21.250936      633952.4       103.1101       78.577415      78.2452        1.6385899    
      3480   0.045568126   -239460.71     -21.2983        633945.02      103.10978      78.57701       78.244936      1.638609     
      3490   0.045098188   -239463.06     -20.775657      633937.49      103.10946      78.576576      78.244684      1.6386284    
      3500   0.044641872   -239465.39     -19.969529      633929.91      103.10913      78.576122      78.244446      1.638648     
      3510   0.044199386   -239467.68     -19.181217      633922.38      103.10882      78.575658      78.244219      1.6386675    
      3520   0.043769938   -239469.96     -18.582173      633914.95      103.1085       78.575194      78.244002      1.6386867    
      3530   0.04335306    -239472.2      -18.265116      633907.65      103.1082       78.574733      78.243792      1.6387055    
      3540   0.042948306   -239474.42     -18.21237       633900.47      103.1079       78.57428       78.243585      1.6387241    
      3550   0.042556017   -239476.62     -18.27165       633893.36      103.1076       78.573834      78.243378      1.6387425    
      3560   0.042176469   -239478.8      -18.337851      633886.3       103.1073       78.573395      78.243169      1.6387608    
      3570   0.041810522   -239480.96     -18.360589      633879.24      103.107        78.572959      78.242955      1.638779     
      3580   0.041458017   -239483.09     -18.265263      633872.17      103.10671      78.572528      78.242738      1.6387973    
      3590   0.041118129   -239485.2      -18.079014      633865.1       103.10641      78.572099      78.242518      1.6388155    
      3600   0.040791489   -239487.3      -17.814244      633858.04      103.10611      78.571673      78.242296      1.6388338    
      3610   0.040477027   -239489.37     -17.590829      633851.01      103.10582      78.571249      78.242075      1.638852     
      3620   0.040175806   -239491.43     -17.406193      633844.02      103.10553      78.570826      78.241854      1.6388701    
      3630   0.039888135   -239493.46     -17.314376      633837.05      103.10524      78.570403      78.241636      1.6388881    
      3640   0.039613596   -239495.49     -17.306816      633830.12      103.10495      78.569981      78.241421      1.638906     
      3650   0.039352746   -239497.49     -17.302032      633823.2       103.10466      78.569557      78.241207      1.6389239    
      3660   0.039104711   -239499.48     -17.26088       633816.28      103.10437      78.569132      78.240995      1.6389418    
      3670   0.038867846   -239501.46     -17.138429      633809.35      103.10408      78.568707      78.240785      1.6389597    
      3680   0.038641387   -239503.42     -16.9764        633802.43      103.10378      78.568281      78.240577      1.6389776    
      3690   0.038423075   -239505.36     -16.804389      633795.51      103.10349      78.567856      78.240372      1.6389955    
      3700   0.038211372   -239507.3      -16.613151      633788.62      103.10319      78.567432      78.240168      1.6390133    
      3710   0.038001784   -239509.22     -16.431658      633781.76      103.10289      78.567011      78.239967      1.6390311    
      3720   0.037789388   -239511.13     -16.303169      633774.92      103.10259      78.566592      78.239768      1.6390487    
      3730   0.037568598   -239513.02     -16.145208      633768.12      103.10229      78.566175      78.239571      1.6390663    
      3740   0.037333249   -239514.9      -15.947818      633761.35      103.10199      78.565761      78.239374      1.6390838    
      3750   0.037078396   -239516.77     -15.731517      633754.62      103.1017       78.565349      78.239178      1.6391012    
      3760   0.036801964   -239518.62     -15.495916      633747.93      103.1014       78.564939      78.238983      1.6391185    
      3770   0.036505401   -239520.45     -15.29367       633741.29      103.10112      78.56453       78.238787      1.6391357    
      3780   0.036195075   -239522.26     -15.109163      633734.71      103.10084      78.564124      78.238591      1.6391527    
      3790   0.035880131   -239524.06     -14.94956       633728.18      103.10057      78.563719      78.238394      1.6391696    
      3800   0.0355703     -239525.84     -14.814826      633721.69      103.1003       78.563316      78.238195      1.6391864    
      3810   0.035273795   -239527.6      -14.735974      633715.25      103.10005      78.562915      78.237995      1.6392031    
      3820   0.034995935   -239529.35     -14.6769        633708.85      103.0998       78.562514      78.237793      1.6392196    
      3830   0.034738979   -239531.08     -14.641047      633702.47      103.09955      78.562114      78.237589      1.6392361    
      3840   0.034501946   -239532.79     -14.586042      633696.1       103.09931      78.561714      78.237383      1.6392526    
      3850   0.034281893   -239534.5      -14.522227      633689.75      103.09908      78.561313      78.237176      1.639269     
      3860   0.034075784   -239536.19     -14.421989      633683.4       103.09885      78.560912      78.236968      1.6392855    
      3870   0.033881185   -239537.86     -14.285379      633677.07      103.09862      78.560509      78.23676       1.6393018    
      3880   0.033695717   -239539.53     -14.161615      633670.75      103.09839      78.560106      78.236552      1.6393182    
      3890   0.033517543   -239541.18     -14.024472      633664.45      103.09817      78.559703      78.236345      1.6393345    
      3900   0.033344807   -239542.83     -13.899624      633658.18      103.09795      78.559299      78.236139      1.6393507    
      3910   0.033176011   -239544.46     -13.794683      633651.94      103.09773      78.558896      78.235934      1.6393669    
      3920   0.033010606   -239546.08     -13.696455      633645.72      103.09752      78.558493      78.23573       1.6393829    
      3930   0.032848538   -239547.7      -13.58847       633639.52      103.09731      78.55809       78.235527      1.639399     
      3940   0.032689322   -239549.3      -13.491602      633633.35      103.0971       78.557687      78.235323      1.639415     
      3950   0.032532245   -239550.89     -13.414727      633627.2       103.0969       78.557285      78.23512       1.6394309    
      3960   0.032377325   -239552.48     -13.333314      633621.07      103.0967       78.556883      78.234916      1.6394467    
      3970   0.032224371   -239554.05     -13.22762       633614.95      103.0965       78.556482      78.234711      1.6394625    
      3980   0.03207331    -239555.61     -13.139197      633608.86      103.0963       78.556081      78.234506      1.6394783    
      3990   0.03192436    -239557.17     -13.022465      633602.79      103.09611      78.555681      78.234299      1.639494     
      4000   0.031777552   -239558.71     -12.870275      633596.74      103.09593      78.555281      78.234092      1.6395097    
      4010   0.031632663   -239560.25     -12.73466       633590.72      103.09574      78.554883      78.233884      1.6395252    
      4020   0.031487716   -239561.78     -12.655568      633584.73      103.09556      78.554485      78.233676      1.6395407    
      4030   0.031342571   -239563.3      -12.629336      633578.77      103.09539      78.554088      78.233468      1.6395562    
      4040   0.031199666   -239564.81     -12.607906      633572.82      103.09522      78.553692      78.233259      1.6395716    
      4050   0.031059272   -239566.31     -12.587961      633566.89      103.09505      78.553296      78.233049      1.6395869    
      4060   0.030921255   -239567.8      -12.557104      633560.96      103.09488      78.552902      78.232838      1.6396023    
      4070   0.030785111   -239569.28     -12.508205      633555.03      103.09471      78.552509      78.232626      1.6396176    
      4080   0.030651492   -239570.76     -12.419867      633549.11      103.09454      78.552117      78.232414      1.6396329    
      4090   0.030520238   -239572.23     -12.291606      633543.19      103.09437      78.551727      78.232202      1.6396483    
      4100   0.030391565   -239573.69     -12.198035      633537.28      103.09419      78.551338      78.23199       1.6396635    
      4110   0.030266848   -239575.14     -12.177789      633531.4       103.09402      78.550952      78.231778      1.6396788    
      4120   0.030144594   -239576.58     -12.203709      633525.52      103.09385      78.550567      78.231567      1.639694     
      4130   0.030025176   -239578.02     -12.178616      633519.64      103.09368      78.550183      78.231355      1.6397092    
      4140   0.029908919   -239579.44     -12.108207      633513.76      103.0935       78.549801      78.231143      1.6397244    
      4150   0.029795766   -239580.86     -12.019763      633507.88      103.09332      78.54942       78.230931      1.6397396    
      4160   0.02968525    -239582.28     -11.95416       633502         103.09314      78.549041      78.230719      1.6397548    
      4170   0.029577948   -239583.68     -11.910183      633496.14      103.09297      78.548662      78.230506      1.63977      
      4180   0.029474246   -239585.08     -11.828683      633490.28      103.09279      78.548285      78.230294      1.6397852    
      4190   0.029372736   -239586.48     -11.830299      633484.43      103.09261      78.547909      78.230081      1.6398003    
      4200   0.02927362    -239587.86     -11.863998      633478.58      103.09243      78.547534      78.229867      1.6398155    
      4210   0.029177163   -239589.24     -11.877224      633472.72      103.09226      78.547158      78.229653      1.6398306    
      4220   0.029084708   -239590.61     -11.835079      633466.86      103.09208      78.546782      78.229436      1.6398458    
      4230   0.028996349   -239591.98     -11.739548      633460.98      103.0919       78.546405      78.229219      1.639861     
      4240   0.028911645   -239593.34     -11.63794       633455.1       103.09173      78.546028      78.229         1.6398763    
      4250   0.02883088    -239594.7      -11.542842      633449.23      103.09156      78.54565       78.228781      1.6398915    
      4260   0.028753671   -239596.05     -11.513922      633443.38      103.09139      78.545271      78.228561      1.6399066    
      4270   0.028680349   -239597.39     -11.50409       633437.53      103.09123      78.544892      78.228341      1.6399218    
      4280   0.028610886   -239598.73     -11.476499      633431.68      103.09107      78.544513      78.22812       1.6399369    
      4290   0.028545443   -239600.07     -11.419997      633425.83      103.0909       78.544135      78.227899      1.639952     
      4300   0.028483623   -239601.4      -11.396542      633419.99      103.09074      78.543757      78.227677      1.6399672    
      4310   0.028425545   -239602.73     -11.348499      633414.15      103.09058      78.543379      78.227455      1.6399823    
      4320   0.028370993   -239604.05     -11.274717      633408.31      103.09041      78.543003      78.227232      1.6399974    
      4330   0.028319805   -239605.36     -11.179144      633402.47      103.09025      78.542629      78.22701       1.6400125    
      4340   0.028271708   -239606.68     -11.098938      633396.65      103.09009      78.542255      78.226786      1.6400276    
      4350   0.028225195   -239607.99     -11.071518      633390.84      103.08992      78.541883      78.226563      1.6400426    
      4360   0.028179211   -239609.29     -11.08657       633385.03      103.08976      78.541513      78.22634       1.6400577    
      4370   0.028133963   -239610.59     -11.098932      633379.23      103.08959      78.541143      78.226116      1.6400727    
      4380   0.02808879    -239611.89     -11.135739      633373.43      103.08943      78.540775      78.225893      1.6400877    
      4390   0.028044736   -239613.18     -11.108841      633367.61      103.08926      78.540408      78.225668      1.6401028    
      4400   0.028001116   -239614.47     -11.017849      633361.78      103.08909      78.540041      78.225442      1.6401179    
      4410   0.027957645   -239615.76     -10.886579      633355.95      103.08892      78.539676      78.225216      1.640133     
      4420   0.027913457   -239617.04     -10.779463      633350.14      103.08875      78.539311      78.224988      1.640148     
      4430   0.027868244   -239618.32     -10.685011      633344.33      103.08859      78.538947      78.224759      1.6401631    
      4440   0.027821527   -239619.6      -10.610021      633338.55      103.08842      78.538584      78.224529      1.640178     
      4450   0.027773025   -239620.87     -10.550725      633332.79      103.08826      78.538223      78.224298      1.640193     
      4460   0.027721959   -239622.13     -10.524867      633327.05      103.08811      78.537863      78.224067      1.6402078    
      4470   0.027668155   -239623.4      -10.477126      633321.32      103.08795      78.537504      78.223834      1.6402227    
      4480   0.027611431   -239624.65     -10.39545       633315.6       103.0878       78.537146      78.2236        1.6402375    
      4490   0.027551549   -239625.91     -10.307868      633309.9       103.08765      78.53679       78.223365      1.6402522    
      4500   0.027488166   -239627.16     -10.201163      633304.22      103.0875       78.536437      78.22313       1.640267     
      4510   0.027420669   -239628.4      -10.122991      633298.56      103.08735      78.536086      78.222895      1.6402816    
      4520   0.027348942   -239629.64     -10.088852      633292.93      103.08719      78.535739      78.22266       1.6402962    
      4530   0.027273167   -239630.88     -10.085257      633287.31      103.08704      78.535395      78.222425      1.6403108    
      4540   0.02719346    -239632.11     -10.106943      633281.7       103.08689      78.535054      78.222189      1.6403253    
      4550   0.027110402   -239633.33     -10.097592      633276.1       103.08673      78.534716      78.221952      1.6403398    
      4560   0.027023931   -239634.55     -10.049908      633270.5       103.08657      78.53438       78.221714      1.6403543    
      4570   0.026934154   -239635.77     -9.9621         633264.9       103.08641      78.534048      78.221475      1.6403688    
      4580   0.02684157    -239636.97     -9.8432371      633259.3       103.08625      78.533718      78.221236      1.6403833    
      4590   0.02674724    -239638.18     -9.7452344      633253.73      103.08609      78.533391      78.220996      1.6403977    
      4600   0.026651182   -239639.37     -9.7135439      633248.17      103.08593      78.533067      78.220757      1.6404121    
      4610   0.02655377    -239640.56     -9.6825231      633242.64      103.08576      78.532745      78.220518      1.6404265    
      4620   0.026454777   -239641.75     -9.6833904      633237.11      103.08559      78.532424      78.220281      1.6404408    
      4630   0.026355419   -239642.92     -9.6683619      633231.59      103.08543      78.532104      78.220045      1.6404551    
      4640   0.026256699   -239644.1      -9.6204304      633226.08      103.08526      78.531784      78.21981       1.6404694    
      4650   0.026159741   -239645.26     -9.5512675      633220.57      103.08509      78.531463      78.219576      1.6404836    
      4660   0.026065146   -239646.42     -9.4708272      633215.07      103.08493      78.531141      78.219344      1.6404979    
      4670   0.025973141   -239647.58     -9.3938698      633209.59      103.08476      78.53082       78.219113      1.6405121    
      4680   0.025883169   -239648.73     -9.3728548      633204.11      103.08459      78.530498      78.218884      1.6405263    
      4690   0.025796866   -239649.87     -9.3539461      633198.66      103.08443      78.530177      78.218657      1.6405404    
      4700   0.025714957   -239651.01     -9.3572561      633193.21      103.08426      78.529857      78.218431      1.6405545    
      4710   0.025637394   -239652.14     -9.3670217      633187.76      103.08408      78.529538      78.218208      1.6405686    
      4720   0.025564308   -239653.27     -9.391995       633182.31      103.0839       78.529221      78.217985      1.6405828    
      4730   0.02549602    -239654.39     -9.3754299      633176.85      103.08372      78.528905      78.217765      1.6405969    
      4740   0.025432125   -239655.51     -9.3462202      633171.39      103.08353      78.52859       78.217545      1.6406111    
      4750   0.025373218   -239656.63     -9.3151457      633165.91      103.08334      78.528276      78.217327      1.6406252    
      4760   0.025319124   -239657.74     -9.2455417      633160.44      103.08315      78.527963      78.21711       1.6406394    
      4770   0.025269671   -239658.84     -9.1659359      633154.96      103.08295      78.52765       78.216893      1.6406536    
      4780   0.025224752   -239659.95     -9.1097418      633149.5       103.08276      78.527338      78.216678      1.6406678    
      4790   0.025183532   -239661.05     -9.0473436      633144.04      103.08256      78.527026      78.216463      1.6406819    
      4800   0.02514557    -239662.14     -8.9963493      633138.6       103.08237      78.526714      78.216249      1.640696     
      4810   0.025110437   -239663.24     -8.9542423      633133.16      103.08217      78.526404      78.216036      1.6407101    
      4820   0.02507748    -239664.33     -8.906528       633127.74      103.08197      78.526094      78.215825      1.6407242    
      4830   0.025046065   -239665.42     -8.8538547      633122.34      103.08178      78.525785      78.215614      1.6407382    
      4840   0.025014952   -239666.5      -8.8114017      633116.94      103.08158      78.525477      78.215404      1.6407522    
      4850   0.024983748   -239667.58     -8.7660166      633111.56      103.08138      78.525171      78.215195      1.6407661    
      4860   0.024952576   -239668.66     -8.6977961      633106.19      103.08118      78.524866      78.214987      1.64078      
      4870   0.024921444   -239669.74     -8.6475932      633100.83      103.08098      78.524563      78.21478       1.6407939    
      4880   0.024890098   -239670.81     -8.6167373      633095.49      103.08078      78.524263      78.214573      1.6408077    
      4890   0.024858629   -239671.89     -8.5904418      633090.16      103.08057      78.523964      78.214367      1.6408215    
      4900   0.024825898   -239672.95     -8.6070616      633084.85      103.08037      78.523667      78.214161      1.6408353    
      4910   0.024787174   -239674.02     -8.6701612      633079.53      103.08016      78.523372      78.213956      1.6408491    
      4920   0.024746179   -239675.08     -8.6858497      633074.21      103.07995      78.523078      78.213751      1.6408629    
      4930   0.024704877   -239676.14     -8.6445863      633068.88      103.07973      78.522786      78.213546      1.6408767    
      4940   0.024663116   -239677.19     -8.5443019      633063.54      103.07951      78.522496      78.213342      1.6408906    
      4950   0.024621504   -239678.25     -8.4289589      633058.2       103.07929      78.522206      78.213139      1.6409044    
      4960   0.024580381   -239679.3      -8.3458229      633052.88      103.07907      78.521919      78.212937      1.6409182    
      4970   0.024540388   -239680.34     -8.2975108      633047.57      103.07884      78.521634      78.212736      1.6409319    
      4980   0.024501595   -239681.38     -8.2788994      633042.28      103.07862      78.52135       78.212536      1.6409456    
      4990   0.024464111   -239682.42     -8.2823556      633037.01      103.07839      78.521068      78.212336      1.6409593    
      5000   0.024426862   -239683.46     -8.3555426      633031.74      103.07817      78.520787      78.212135      1.640973     
      5010   0.024391016   -239684.49     -8.4054342      633026.47      103.07795      78.520508      78.211932      1.6409866    
      5020   0.024356426   -239685.52     -8.3958358      633021.19      103.07772      78.520229      78.211727      1.6410003    
      5030   0.024323702   -239686.55     -8.3150304      633015.89      103.0775       78.519952      78.21152       1.6410141    
      5040   0.024293019   -239687.58     -8.198606       633010.59      103.07727      78.519677      78.211311      1.6410278    
      5050   0.024264092   -239688.6      -8.0686092      633005.3       103.07704      78.519403      78.211102      1.6410415    
      5060   0.024236804   -239689.62     -7.9596588      633000.03      103.07682      78.519132      78.210892      1.6410552    
      5070   0.024211038   -239690.63     -7.904573       632994.79      103.07659      78.518863      78.210682      1.6410688    
      5080   0.02418814    -239691.65     -7.9338469      632989.57      103.07637      78.518596      78.210473      1.6410823    
      5090   0.024167293   -239692.66     -7.9751558      632984.36      103.07615      78.51833       78.210265      1.6410958    
      5100   0.02414764    -239693.67     -7.9826891      632979.16      103.07592      78.518065      78.210056      1.6411093    
      5110   0.024128846   -239694.68     -7.9751544      632973.96      103.0757       78.517801      78.209848      1.6411228    
      5120   0.024110362   -239695.68     -7.9569098      632968.76      103.07547      78.517538      78.209638      1.6411363    
      5130   0.024090529   -239696.69     -7.9460945      632963.55      103.07524      78.517276      78.209428      1.6411498    
      5140   0.024071188   -239697.69     -7.8850055      632958.35      103.07502      78.517015      78.209216      1.6411633    
      5150   0.024052441   -239698.69     -7.8058051      632953.14      103.07479      78.516756      78.209003      1.6411768    
      5160   0.024034297   -239699.68     -7.7507579      632947.95      103.07456      78.516499      78.208789      1.6411902    
      5170   0.02401686    -239700.68     -7.7296767      632942.76      103.07434      78.516244      78.208574      1.6412037    
      5180   0.024000424   -239701.67     -7.7262289      632937.59      103.07411      78.515992      78.208358      1.6412171    
      5190   0.023983797   -239702.66     -7.713133       632932.41      103.07388      78.515742      78.20814       1.6412305    
      5200   0.023966267   -239703.65     -7.7063812      632927.25      103.07366      78.515495      78.207921      1.6412439    
      5210   0.023948179   -239704.64     -7.6670503      632922.08      103.07343      78.515249      78.2077        1.6412573    
      5220   0.023930143   -239705.62     -7.6006432      632916.92      103.0732       78.515006      78.207479      1.6412707    
      5230   0.023912405   -239706.6      -7.526004       632911.76      103.07297      78.514764      78.207257      1.6412841    
      5240   0.023891732   -239707.58     -7.5194756      632906.62      103.07274      78.514525      78.207035      1.6412974    
      5250   0.023868125   -239708.56     -7.5148204      632901.49      103.07251      78.514288      78.206812      1.6413107    
      5260   0.023845364   -239709.54     -7.4730563      632896.36      103.07228      78.514053      78.206588      1.641324     
      5270   0.023823668   -239710.51     -7.4240543      632891.24      103.07204      78.513821      78.206361      1.6413373    
      5280   0.023802606   -239711.48     -7.3907122      632886.13      103.07181      78.513592      78.206133      1.6413505    
      5290   0.023782744   -239712.45     -7.390213       632881.03      103.07158      78.513365      78.205902      1.6413638    
      5300   0.0237645     -239713.41     -7.3708891      632875.93      103.07136      78.513141      78.205669      1.641377     
      5310   0.02374806    -239714.38     -7.3394459      632870.84      103.07113      78.512919      78.205434      1.6413902    
      5320   0.023733566   -239715.34     -7.2851935      632865.75      103.0709       78.512699      78.205197      1.6414034    
      5330   0.023720679   -239716.3      -7.2228555      632860.67      103.07067      78.512481      78.204959      1.6414166    
      5340   0.023709639   -239717.26     -7.1511755      632855.6       103.07045      78.512264      78.204721      1.6414297    
      5350   0.023700527   -239718.21     -7.0728003      632850.55      103.07022      78.512048      78.204483      1.6414428    
      5360   0.023693465   -239719.17     -7.0000588      632845.52      103.07         78.511833      78.204246      1.6414559    
      5370   0.023688606   -239720.12     -6.942934       632840.51      103.06977      78.511619      78.204009      1.6414688    
      5380   0.02368604    -239721.07     -6.9083092      632835.53      103.06955      78.511405      78.203773      1.6414818    
      5390   0.023685794   -239722.02     -6.8922491      632830.57      103.06933      78.511192      78.203538      1.6414946    
      5400   0.023687762   -239722.97     -6.8846957      632825.62      103.06912      78.51098       78.203303      1.6415075    
      5410   0.023691395   -239723.92     -6.9154203      632820.69      103.0689       78.510769      78.203067      1.6415203    
      5420   0.02369668    -239724.87     -6.930762       632815.76      103.06869      78.510557      78.20283       1.641533     
      5430   0.02370306    -239725.81     -6.9215437      632810.84      103.06848      78.510346      78.202592      1.6415458    
      5440   0.023710727   -239726.76     -6.8689236      632805.91      103.06827      78.510136      78.202354      1.6415586    
      5450   0.023719645   -239727.7      -6.7833096      632800.98      103.06805      78.509926      78.202115      1.6415714    
      5460   0.023729915   -239728.64     -6.70369        632796.07      103.06784      78.509717      78.201875      1.6415841    
      5470   0.023740977   -239729.59     -6.6275721      632791.17      103.06763      78.509509      78.201637      1.6415968    
      5480   0.02375167    -239730.53     -6.5958117      632786.29      103.06742      78.509303      78.2014        1.6416095    
      5490   0.023761068   -239731.47     -6.6147837      632781.44      103.06721      78.509097      78.201165      1.6416221    
      5500   0.023769773   -239732.4      -6.6233813      632776.59      103.067        78.508893      78.20093       1.6416347    
      5510   0.023777514   -239733.34     -6.6008815      632771.75      103.06679      78.508689      78.200696      1.6416472    
      5520   0.023784151   -239734.28     -6.5555084      632766.91      103.06657      78.508486      78.200462      1.6416598    
      5530   0.023789387   -239735.21     -6.4922957      632762.09      103.06636      78.508284      78.200228      1.6416723    
      5540   0.023792655   -239736.15     -6.4121015      632757.27      103.06615      78.508083      78.199994      1.6416848    
      5550   0.02379399    -239737.08     -6.3418438      632752.48      103.06594      78.507883      78.199761      1.6416972    
      5560   0.023793388   -239738.01     -6.2957144      632747.7       103.06573      78.507685      78.199527      1.6417096    
      5570   0.023790028   -239738.94     -6.2812639      632742.95      103.06552      78.507489      78.199293      1.6417219    
      5580   0.023784389   -239739.87     -6.2809753      632738.21      103.06531      78.507294      78.199059      1.6417342    
      5590   0.023776773   -239740.8      -6.2741849      632733.49      103.06511      78.507101      78.198824      1.6417465    
      5600   0.023767335   -239741.72     -6.2621641      632728.77      103.0649       78.50691       78.198589      1.6417587    
      5610   0.023756065   -239742.65     -6.2360196      632724.07      103.06469      78.50672       78.198354      1.6417709    
      5620   0.023743269   -239743.57     -6.1810752      632719.37      103.06448      78.506531      78.198119      1.6417831    
      5630   0.023728751   -239744.49     -6.134963       632714.68      103.06427      78.506344      78.197884      1.6417953    
      5640   0.023713865   -239745.41     -6.1643793      632710         103.06406      78.506159      78.19765       1.6418074    
      5650   0.023698578   -239746.32     -6.1761026      632705.32      103.06385      78.505974      78.197416      1.6418196    
      5660   0.023683481   -239747.23     -6.1668814      632700.65      103.06364      78.50579       78.197182      1.6418317    
      5670   0.023668126   -239748.15     -6.1492154      632695.98      103.06343      78.505606      78.196948      1.6418438    
      5680   0.023653046   -239749.06     -6.0996804      632691.31      103.06322      78.505422      78.196713      1.6418559    
      5690   0.023638412   -239749.97     -6.0117828      632686.64      103.06301      78.505238      78.196477      1.6418681    
      5700   0.023624175   -239750.87     -5.9157917      632681.98      103.06281      78.505054      78.196241      1.6418801    
      5710   0.023610602   -239751.78     -5.8356478      632677.35      103.06261      78.504869      78.196004      1.6418922    
      5720   0.023598324   -239752.68     -5.7660181      632672.74      103.06241      78.504685      78.195768      1.6419041    
      5730   0.023587737   -239753.58     -5.749942       632668.15      103.06222      78.504501      78.195533      1.641916     
      5740   0.023579257   -239754.48     -5.7561066      632663.59      103.06202      78.504317      78.195298      1.6419279    
      5750   0.023572928   -239755.38     -5.7576829      632659.05      103.06183      78.504132      78.195063      1.6419397    
      5760   0.023568942   -239756.27     -5.7491784      632654.51      103.06165      78.503948      78.194829      1.6419514    
      5770   0.023567199   -239757.17     -5.7327726      632649.99      103.06146      78.503763      78.194595      1.6419632    
      5780   0.023567215   -239758.06     -5.7196106      632645.47      103.06128      78.503578      78.194361      1.6419749    
      5790   0.02357008    -239758.95     -5.6856781      632640.97      103.0611       78.503392      78.194127      1.6419866    
      5800   0.023576769   -239759.84     -5.6444218      632636.46      103.06092      78.503205      78.193892      1.6419983    
      5810   0.023587335   -239760.73     -5.5865917      632631.97      103.06074      78.503017      78.193658      1.6420099    
      5820   0.023601859   -239761.62     -5.5093766      632627.49      103.06057      78.502829      78.193423      1.6420216    
      5830   0.023620885   -239762.51     -5.4527617      632623.04      103.0604       78.50264       78.193188      1.6420331    
      5840   0.023644519   -239763.4      -5.4151156      632618.6       103.06023      78.502452      78.192952      1.6420446    
[...]
     15690   0.75622097    -240630.5      -0.7958353      623109.87      102.36357      78.097807      77.943587      1.6671024    
     15700   0.76324584    -240634.62     -0.81067169     623109.09      102.36318      78.097748      77.943838      1.6671045    
     15710   0.77236503    -240638.76      0.09937285     623108.45      102.36282      78.097706      77.944079      1.6671062    
     15720   0.77806819    -240642.91      1.6715182      623108.01      102.36248      78.097672      77.944315      1.6671074    
     15730   0.77194827    -240647         2.7349192      623107.89      102.36219      78.097641      77.944551      1.6671077    
     15740   0.75337975    -240650.96      2.3263018      623108.1       102.36196      78.097602      77.944792      1.6671072    
     15750   0.7338299     -240654.79      0.30022529     623108.5       102.36178      78.097544      77.945036      1.6671061    
     15760   0.722091      -240658.52     -2.8217974      623108.8       102.36163      78.097457      77.945272      1.6671053    
     15770   0.71801319    -240662.19     -6.0370972      623108.69      102.3615       78.097334      77.945485      1.6671056    
     15780   0.71844433    -240665.84     -8.4215356      623107.93      102.36136      78.097171      77.945659      1.6671076    
     15790   0.72103777    -240669.47     -9.6322015      623106.44      102.36121      78.096969      77.945787      1.6671116    
     15800   0.72415801    -240673.08     -9.9463957      623104.27      102.36105      78.096736      77.94587       1.6671174    
     15810   0.72643414    -240676.68     -9.7985665      623101.58      102.36088      78.096484      77.945916      1.6671246    
     15820   0.72712956    -240680.25     -9.1366119      623098.51      102.36068      78.096226      77.945937      1.6671328    
     15830   0.72697729    -240683.79     -8.049342       623095.24      102.36046      78.095977      77.945951      1.6671416    
     15840   0.72737872    -240687.31     -6.9620014      623091.94      102.36019      78.09575       77.945969      1.6671504    
     15850   0.72886918    -240690.79     -6.2745049      623088.74      102.35988      78.095552      77.946002      1.667159     
     15860   0.73122       -240694.26     -6.6369952      623085.67      102.35952      78.095387      77.946055      1.6671672    
     15870   0.73390345    -240697.71     -7.1475638      623082.66      102.35912      78.09525       77.946124      1.6671752    
     15880   0.73649007    -240701.15     -7.551881       623079.64      102.35866      78.095135      77.946205      1.6671833    
     15890   0.73822744    -240704.56     -7.9007253      623076.56      102.35817      78.095035      77.946296      1.6671916    
     15900   0.73899924    -240707.94     -8.3606874      623073.39      102.35764      78.094943      77.946394      1.6672       
     15910   0.7394951     -240711.3      -8.6180097      623070.11      102.35708      78.094852      77.946499      1.6672088    
     15920   0.7405341     -240714.63     -8.8479271      623066.71      102.35651      78.094755      77.946608      1.6672179    
     15930   0.74272798    -240717.94     -8.8038454      623063.19      102.35592      78.094652      77.946717      1.6672273    
     15940   0.74669177    -240721.23     -8.4913331      623059.58      102.35533      78.094543      77.946822      1.667237     
     15950   0.75282326    -240724.52     -8.3837337      623055.95      102.35476      78.09443       77.946919      1.6672467    
     15960   0.7614257     -240727.81     -8.5695914      623052.29      102.35419      78.09432       77.947006      1.6672565    
     15970   0.7728123     -240731.13     -8.7075014      623048.6       102.35362      78.094216      77.947081      1.6672664    
     15980   0.78712955    -240734.47     -8.8252235      623044.86      102.35304      78.094126      77.947147      1.6672764    
     15990   0.80458731    -240737.85     -9.4815138      623041.07      102.35243      78.094056      77.947205      1.6672865    
     16000   0.82549581    -240741.29     -10.736383      623037.15      102.35177      78.094013      77.947257      1.667297     
     16010   0.85224945    -240744.8      -12.016745      623033         102.35105      78.093998      77.947298      1.6673081    
     16020   0.88827267    -240748.42     -13.700022      623028.51      102.35026      78.094014      77.947328      1.6673201    
     16030   0.93790878    -240752.21     -14.971777      623023.59      102.34937      78.09406       77.947341      1.6673333    
     16040   0.98118026    -240756.15     -13.330363      623018.23      102.3484       78.09414       77.947332      1.6673477    
     16050   0.92291331    -240759.83     -7.425528       623012.74      102.34735      78.094276      77.94731       1.6673623    
     16060   0.92150285    -240763.4      -7.4673049      623007.73      102.34625      78.094498      77.9473        1.6673758    
     16070   0.9277785     -240767        -11.915005      623003.05      102.3451       78.094761      77.947324      1.6673883    
     16080   0.94010587    -240770.6      -13.34247       622998.2       102.3439       78.094997      77.947393      1.6674013    
     16090   0.93763184    -240774.17     -14.537543      622993.01      102.34266      78.095182      77.947507      1.6674151    
     16100   0.92465113    -240777.63     -16.032738      622987.44      102.34139      78.095306      77.947656      1.6674301    
     16110   0.91234214    -240781.01     -15.296242      622981.42      102.34011      78.095354      77.947828      1.6674462    
     16120   0.90675286    -240784.33     -12.078281      622975.15      102.33886      78.095332      77.948015      1.6674629    
     16130   0.90898504    -240787.62     -8.677685       622969.04      102.33768      78.095267      77.94822       1.6674793    
     16140   0.92145085    -240790.93     -6.527289       622963.42      102.33656      78.095192      77.948438      1.6674943    
     16150   0.9431098     -240794.27     -4.5987748      622958.42      102.33553      78.095133      77.948661      1.6675077    
     16160   0.96873317    -240797.67     -2.8137433      622954.11      102.33456      78.095112      77.948882      1.6675193    
     16170   0.98503436    -240801.09     -2.7188924      622950.51      102.33365      78.095146      77.949092      1.6675289    
     16180   0.98361821    -240804.46     -4.3374827      622947.45      102.33278      78.095242      77.949273      1.6675371    
     16190   0.97591725    -240807.75     -6.6537583      622944.61      102.33194      78.095393      77.949405      1.6675447    
     16200   0.97537115    -240811        -9.3502965      622941.68      102.33111      78.09559       77.949474      1.6675526    
     16210   0.98712898    -240814.25     -13.737702      622938.34      102.33025      78.095824      77.949475      1.6675615    
     16220   1.0095147     -240817.54     -18.475703      622934.2       102.32935      78.096074      77.9494        1.6675726    
     16230   1.029625      -240820.86     -21.19361       622928.93      102.32837      78.09631       77.949246      1.6675867    
     16240   1.0367541     -240824.16     -20.583524      622922.49      102.32735      78.096502      77.949024      1.6676039    
     16250   1.0301493     -240827.38     -16.675804      622915.23      102.32634      78.096635      77.948759      1.6676234    
     16260   1.0195174     -240830.52     -12.416753      622907.76      102.32537      78.096708      77.948485      1.6676433    
     16270   1.0083542     -240833.59     -8.4843815      622900.62      102.32449      78.096734      77.948238      1.6676625    
     16280   0.99537849    -240836.57     -5.8219481      622894.16      102.3237       78.096724      77.948046      1.6676798    
     16290   0.98302845    -240839.47     -4.0058852      622888.54      102.32298      78.096682      77.947928      1.6676948    
     16300   0.9753746     -240842.32     -2.7392034      622883.76      102.32233      78.096613      77.947896      1.6677076    
     16310   0.97416894    -240845.12     -1.487935       622879.78      102.32173      78.096517      77.947951      1.6677183    
     16320   0.97851269    -240847.9      -1.0131599      622876.53      102.32118      78.096394      77.948088      1.667727     
     16330   0.98628907    -240850.66     -1.0956091      622873.92      102.32068      78.096245      77.94829       1.6677339    
     16340   0.99705721    -240853.42     -1.3576513      622871.78      102.32022      78.096072      77.948539      1.6677397    
     16350   1.0136236     -240856.18     -1.1027243      622869.98      102.31982      78.095871      77.948818      1.6677445    
     16360   1.0397681     -240858.98     -0.99993807     622868.46      102.31948      78.095648      77.949112      1.6677486    
     16370   1.0803627     -240861.85     -1.0460465      622867.17      102.3192       78.095405      77.949408      1.667752     
     16380   1.1368863     -240864.83     -1.9120509      622866.04      102.31898      78.095146      77.949696      1.667755     
     16390   1.1985022     -240867.94     -3.2001146      622864.95      102.3188       78.094872      77.949964      1.667758     
     16400   1.2396325     -240871.09     -4.2703465      622863.72      102.31867      78.094583      77.950204      1.6677612    
     16410   1.2514649     -240874.19     -4.0471647      622862.3       102.31857      78.094276      77.950407      1.6677651    
     16420   1.2508969     -240877.23     -1.4223233      622860.74      102.31852      78.093948      77.950573      1.6677692    
     16430   1.2509372     -240880.21      2.3138213      622859.39      102.31857      78.093598      77.950718      1.6677728    
     16440   1.2659765     -240883.18      4.917435       622858.62      102.31873      78.093232      77.950866      1.6677749    
     16450   1.3000517     -240886.2       5.5481678      622858.57      102.31899      78.092858      77.951032      1.667775     
     16460   1.3455999     -240889.29      3.8581189      622859.16      102.31935      78.092476      77.951217      1.6677735    
     16470   1.397603      -240892.44      0.71381592     622860.04      102.31975      78.092081      77.951415      1.6677711    
     16480   1.456274      -240895.66     -2.1135948      622860.81      102.32016      78.09166       77.951617      1.667769     
     16490   1.5245767     -240898.99     -3.2037991      622861.18      102.32056      78.091197      77.951821      1.6677681    
     16500   1.6104237     -240902.44     -2.661728       622861.1       102.32094      78.090689      77.952034      1.6677683    
     16510   1.7173755     -240906.08     -2.8957175      622860.72      102.32128      78.090146      77.952265      1.6677693    
     16520   1.8241039     -240909.87     -5.2036223      622860.06      102.32157      78.089593      77.952511      1.6677711    
     16530   1.9069536     -240913.72     -8.6041519      622858.92      102.32177      78.089057      77.952751      1.6677741    
     16540   1.9742449     -240917.61     -14.049201      622856.99      102.32187      78.088547      77.952949      1.6677793    
     16550   2.0181342     -240921.48     -14.88645       622853.87      102.32186      78.08805       77.953059      1.6677876    
     16560   1.9550334     -240925.02     -2.4762415      622849.85      102.32179      78.087557      77.953099      1.6677984    
     16570   2.0151728     -240928.74      6.773067       622846.38      102.32172      78.087083      77.953196      1.6678077    
     16580   2.0343318     -240932.34      14.085653      622844.46      102.32166      78.086652      77.953427      1.6678128    
     16590   2.1177442     -240936.09      18.749355      622844.59      102.32165      78.08628       77.953826      1.6678125    
     16600   2.1546899     -240939.77      18.797456      622846.85      102.32166      78.08598       77.954403      1.6678064    
     16610   2.2012291     -240943.44      10.802283      622850.73      102.32165      78.085759      77.955116      1.667796     
     16620   2.277777      -240947.17      2.3071791      622855.03      102.32156      78.085616      77.955861      1.6677845    
     16630   2.4341016     -240951.17     -5.0934313      622858.68      102.32135      78.085553      77.956543      1.6677747    
     16640   2.6045311     -240955.35     -13.711723      622860.94      102.32096      78.085573      77.957106      1.6677687    
     16650   2.7300808     -240959.55     -22.414973      622861.09      102.32032      78.085681      77.957499      1.6677683    
     16660   2.7988175     -240963.68     -23.698762      622858.63      102.3194       78.085883      77.957694      1.6677749    
     16670   2.781312      -240967.54     -18.085925      622853.99      102.31822      78.086172      77.95772       1.6677873    
     16680   2.7457511     -240971.21     -10.999276      622848.21      102.31692      78.086517      77.957643      1.6678028    
     16690   2.7731186     -240974.88     -4.4206604      622842.37      102.31563      78.086899      77.957517      1.6678184    
     16700   2.8401752     -240978.59      0.23879283     622837.22      102.31442      78.087316      77.957375      1.6678322    
     16710   2.9242828     -240982.31      1.3879272      622833.14      102.31334      78.087771      77.957231      1.6678431    
     16720   3.0115514     -240986.02     -2.0438366      622830.03      102.31238      78.088256      77.957096      1.6678515    
     16730   3.0796655     -240989.66     -7.8765536      622827.29      102.31145      78.088748      77.956966      1.6678588    
     16740   3.1835387     -240993.34     -12.593785      622824.19      102.31049      78.089229      77.95683       1.6678671    
     16750   3.3988064     -240997.28     -17.694789      622820.23      102.30944      78.089697      77.956667      1.6678777    
     16760   3.741701      -241001.64     -22.894529      622814.99      102.30829      78.09016       77.956428      1.6678917    
     16770   4.1878238     -241006.46     -24.84612       622808.15      102.30706      78.090622      77.956046      1.6679101    
     16780   4.6666528     -241011.63     -20.163087      622799.85      102.30584      78.09109       77.955469      1.6679323    
     16790   5.1207902     -241016.99     -10.66599       622790.92      102.30476      78.091579      77.954686      1.6679562    
     16800   5.4956714     -241022.35     -3.2813721      622782.54      102.30391      78.092116      77.953746      1.6679787    
     16810   5.6947506     -241027.37      5.3798054      622775.5       102.3033       78.09271       77.952738      1.6679975    
     16820   5.7866368     -241032.04      7.5262287      622770.47      102.3029       78.09335       77.951772      1.668011     
     16830   5.8029921     -241036.37     -4.4663202      622767.16      102.3027       78.093967      77.950898      1.6680198    
     16840   5.8805323     -241040.6      -19.601926      622763.94      102.30258      78.094448      77.950105      1.6680285    
     16850   6.1706993     -241045.16     -24.536734      622759.12      102.30239      78.094714      77.949383      1.6680414    
     16860   6.4911451     -241049.73     -15.266992      622752.55      102.30207      78.09475       77.948767      1.668059     
     16870   7.0163208     -241054.69     -7.5797127      622745.46      102.30172      78.09458       77.948318      1.668078     
     16880   7.9407921     -241060.6       0.37740006     622738.9       102.30148      78.094186      77.948073      1.6680955    
     16890   8.474746      -241065.8       12.16838       622733.76      102.30149      78.093574      77.948035      1.6681093    
     16900   8.7607036     -241070.3      -9.3865723      622730.68      102.30185      78.092779      77.948168      1.6681176    
     16910   8.9419823     -241074.34     -29.497584      622727.07      102.30242      78.091704      77.94835       1.6681272    
     16920   9.874542      -241079.77     -20.571819      622720.94      102.30299      78.090341      77.948509      1.6681437    
     16930   10.702323     -241084.92     -2.967356       622713.76      102.30346      78.08886       77.948732      1.6681629    
     16940   12.072796     -241091.09     -25.174189      622707.1       102.30378      78.087435      77.949076      1.6681807    
     16950   13.075337     -241096.34     -28.785587      622699.03      102.30374      78.086076      77.949455      1.6682024    
     16960   14.422102     -241102.08      4.0410669      622689.4       102.30319      78.084881      77.949857      1.6682282    
     16970   15.153399     -241106.12      13.437516      622682.03      102.30215      78.084249      77.950364      1.6682479    
     16980   16.173889     -241110.34     -35.026564      622676.97      102.30062      78.084184      77.950956      1.6682614    
     16990   17.893001     -241115.47     -51.341014      622669         102.29856      78.084248      77.951463      1.6682828    
     17000   19.606933     -241120.04     -21.258565      622657.13      102.29613      78.084283      77.9518        1.6683146    
     17010   22.19061      -241125.69     -29.230756      622644.55      102.29362      78.084401      77.952014      1.6683483    
     17020   25.118101     -241131.45      7.2628458      622630.83      102.29125      78.084373      77.952132      1.6683851    
     17030   28.001869     -241134.89      28.085494      622617.9       102.28913      78.084191      77.952313      1.6684197    
     17040   31.779743     -241139.99      74.925493      622610.66      102.28754      78.084116      77.952693      1.6684391    
     17050   35.241986     -241139.27      69.021684      622615.54      102.28676      78.084422      77.953593      1.668426     
     17060   39.798806     -241142.07      20.588475      622627.71      102.2867       78.084669      77.954917      1.6683934    
     17070   48.584233     -241144.22      22.796431      622644.33      102.28717      78.084611      77.956698      1.6683489    
     17080   55.18921      -241145         22.822122      622662.09      102.28795      78.084177      77.958755      1.6683013    
     17090   64.15297      -241146.4      -33.367875      622678.26      102.28865      78.08356       77.960869      1.668258     
     17100   196.41543     -241142.7       435.22195      622690.08      102.28891      78.082938      77.962767      1.6682263    
     17110   227.27401     -241133.28      468.71759      622742.24      102.29479      78.082961      77.964796      1.6680866    
     17120   264.98235     -241121.73      383.91271      622838.65      102.30686      78.083563      77.96706       1.6678284    
     17130   314.11699     -241113.77      254.02182      622961.57      102.32324      78.084493      77.969042      1.6674993    
     17140   597612.91     -241094.06      2111954.4      623896.24      102.36451      78.109764      78.029282      1.6650012    
ERROR: Lost atoms: original 16000 current 15998 (../thermo.cpp:481)
Last command: run             900000
--------------------------------------------------------------------------
Primary job  terminated normally, but 1 process returned
a non-zero exit code. Per user-direction, the job has been aborted.
--------------------------------------------------------------------------
--------------------------------------------------------------------------
mpirun detected that one or more processes exited with non-zero status, thus causing
the job to be terminated. The first process to do so was:

  Process name: [[28924,1],21]
  Exit code:    1
--------------------------------------------------------------------------
