LAMMPS (23 Jun 2022 - Update 2)
WARNING: Using I/O redirection is unreliable with parallel runs. Better use -in switch to read input file. (../lammps.cpp:530)
Lattice spacing in x,y,z = 5.11 5.11 5.11
Created orthogonal box = (0 0 0) to (102.2 102.2 102.2)
  3 by 4 by 4 MPI processor grid
Created 16000 atoms
  using lattice units in orthogonal box = (0 0 0) to (102.2 102.2 102.2)
  create_atoms CPU = 0.105 seconds
Neighbor list info ...
  update every 1 steps, delay 5 steps, check yes
  max neighbors/atom: 2000, page size: 100000
  master list distance cutoff = 7
  ghost atom cutoff = 7
  binsize = 3.5, bins = 30 30 30
  1 neighbor lists, perpetual/occasional/extra = 1 0 0
  (1) pair mlip, perpetual
      attributes: full, newton on
      pair build: full/bin/atomonly
      stencil: full/bin/3d
      bin: standard
Setting up Verlet run ...
  Unit style    : metal
  Current step  : 0
  Time step     : 0.001
Per MPI rank memory allocation (min/avg/max) = 4.354 | 4.355 | 4.355 Mbytes
   Step          Temp          PotEng         Press          Volume           Lx             Ly             Lz          Density    
         0   1             -223028.37      7692.3799      1067462.6      102.2          102.2          102.2          0.97313755   
        10   0.89213726    -223998.51      4005.6926      1214697.9      106.69796      106.69795      106.69795      0.85518218   
        20   0.62601099    -224016.93      38.772379      1229228.3      107.12173      107.1217       107.12171      0.8450733    
        30   0.36024459    -224016.37     -14.044422      1229359.4      107.12554      107.12551      107.12551      0.84498317   
        40   0.22666639    -224016.09     -0.79536393     1229291.1      107.12354      107.12354      107.12353      0.84503013   
        50   0.2732572     -224016.18      1.1336958      1229290.5      107.12348      107.12356      107.12352      0.8450305    
        60   0.43732478    -224016.51      0.30811898     1229318.6      107.12424      107.12444      107.12433      0.84501122   
        70   0.59435267    -224016.81     -0.0073711433   1229343.7      107.1249       107.12525      107.12505      0.84499396   
        80   0.64506       -224016.9      -0.12745076     1229350.6      107.12504      107.12553      107.12524      0.84498918   
        90   0.57754229    -224016.74     -0.19384528     1229338        107.12461      107.12521      107.12489      0.84499787   
       100   0.46314687    -224016.49     -0.11748821     1229317.2      107.12394      107.12458      107.12437      0.84501213   
       110   0.39552383    -224016.34      0.037972012    1229304.1      107.1235       107.1241       107.12414      0.84502119   
       120   0.4222116     -224016.38      0.13291752     1229306.7      107.12353      107.12403      107.12442      0.8450194    
       130   0.51636225    -224016.56      0.10536036     1229320.7      107.12391      107.12427      107.12503      0.84500973   
       140   0.60448307    -224016.72     -0.0002538009   1229334        107.12429      107.12452      107.12554      0.84500063   
       150   0.62615032    -224016.74     -0.089710125    1229336.1      107.1244       107.12454      107.1256       0.84499914   
       160   0.57884343    -224016.62     -0.095547448    1229326.7      107.12422      107.12433      107.12517      0.84500564   
       170   0.51457213    -224016.47     -0.023575004    1229314.2      107.12399      107.12412      107.12452      0.84501422   
       180   0.49462097    -224016.41      0.059272119    1229309        107.12396      107.12416      107.12405      0.84501783   
       190   0.54018451    -224016.49      0.082392125    1229314.6      107.12423      107.1245       107.12393      0.84501398   
       200   0.61663352    -224016.62      0.0276623      1229325.3      107.12459      107.12493      107.12408      0.8450066    
       210   0.6623681     -224016.7      -0.059017481    1229330.9      107.12474      107.12513      107.12421      0.84500274   
       220   0.63897873    -224016.63     -0.10728948     1229325        107.12452      107.12495      107.1241       0.84500678   
       230   0.56254707    -224016.45     -0.078869257    1229310.3      107.12403      107.12449      107.12377      0.84501692   
       240   0.49156437    -224016.28      0.0041686969   1229296.4      107.12358      107.12407      107.12344      0.84502644   
       250   0.48225441    -224016.24      0.078802314    1229292.9      107.12345      107.12396      107.12336      0.84502887   
       260   0.54622158    -224016.35      0.090379876    1229301.6      107.12371      107.12422      107.12361      0.84502288   
       270   0.64184987    -224016.53      0.033560577    1229315.6      107.12415      107.12461      107.124        0.84501326   
       280   0.70563455    -224016.63     -0.045918512    1229324.3      107.12446      107.1248       107.12425      0.84500729   
       290   0.69949908    -224016.6      -0.088559699    1229321.3      107.12448      107.1246       107.12417      0.84500935   
       300   0.63757321    -224016.44     -0.066622813    1229309        107.12424      107.12409      107.12384      0.84501783   
       310   0.57274143    -224016.29     -0.0022467561   1229296.1      107.12399      107.12357      107.1235       0.84502667   
       320   0.55557333    -224016.23      0.053124444    1229291.1      107.12389      107.12336      107.12338      0.84503007   
       330   0.59790961    -224016.3       0.059338315    1229296.1      107.12395      107.12355      107.12355      0.84502666   
       340   0.66719812    -224016.41      0.016723699    1229305.5      107.124        107.12401      107.12387      0.84502018   
       350   0.71398876    -224016.49     -0.037450763    1229311.2      107.12382      107.12446      107.12408      0.8450163    
       360   0.71032069    -224016.45     -0.060686667    1229308.4      107.12339      107.12467      107.12406      0.84501822   
       370   0.66897749    -224016.34     -0.038515045    1229299.3      107.12288      107.12461      107.12385      0.84502447   
       380   0.6299572     -224016.24      0.0068553643   1229290.6      107.12256      107.12436      107.12366      0.84503046   
       390   0.62719241    -224016.21      0.037092756    1229287.9      107.12263      107.12405      107.12366      0.8450323    
       400   0.66272903    -224016.26      0.029222195    1229291.6      107.12304      107.12373      107.12389      0.84502975   
       410   0.70769878    -224016.32     -0.007104805    1229296.9      107.12353      107.12339      107.1242       0.84502614   
       420   0.72780575    -224016.34     -0.039456762    1229298        107.12382      107.12303      107.12437      0.84502537   
       430   0.71187639    -224016.28     -0.040397869    1229293.1      107.12376      107.12273      107.1243       0.84502873   
       440   0.68015661    -224016.19     -0.0097305673   1229285.6      107.12345      107.12264      107.12404      0.8450339    
       450   0.66644901    -224016.13      0.026494632    1229281        107.12307      107.1229       107.12377      0.84503701   
       460   0.68972059    -224016.16      0.038081682    1229282.7      107.12279      107.12346      107.12363      0.84503589   
       470   0.73838904    -224016.23      0.015325775    1229288.5      107.12263      107.12414      107.12363      0.84503187   
       480   0.77956306    -224016.29     -0.023536905    1229293.1      107.12247      107.12466      107.12366      0.84502873   
       490   0.78551144    -224016.27     -0.047633144    1229291.8      107.12225      107.12485      107.12357      0.84502963   
       500   0.75583107    -224016.18     -0.038472041    1229284.5      107.12201      107.12473      107.12331      0.84503463   
Loop time of 1.95737 on 48 procs for 500 steps with 16000 atoms

Performance: 22.070 ns/day, 1.087 hours/ns, 255.444 timesteps/s
97.1% CPU use with 48 MPI tasks x no OpenMP threads

MPI task timing breakdown:
Section |  min time  |  avg time  |  max time  |%varavg| %total
---------------------------------------------------------------
Pair    | 0.35419    | 0.38479    | 0.51452    |   4.6 | 19.66
Neigh   | 0.00062387 | 0.00076251 | 0.0017324  |   0.0 |  0.04
Comm    | 0.15434    | 0.35955    | 0.5197     |  18.8 | 18.37
Output  | 0.24486    | 0.24589    | 0.24613    |   0.0 | 12.56
Modify  | 0.76003    | 0.89358    | 1.0755     |  11.8 | 45.65
Other   |            | 0.0728     |            |       |  3.72

Nlocal:        333.333 ave         356 max         314 min
Histogram: 1 4 3 11 3 17 6 1 1 1
Nghost:            700 ave         752 max         661 min
Histogram: 3 13 15 1 0 0 0 1 8 7
Neighs:              0 ave           0 max           0 min
Histogram: 48 0 0 0 0 0 0 0 0 0
FullNghs:      4666.67 ave        4984 max        4396 min
Histogram: 1 4 3 11 3 17 6 1 1 1

Total # of neighbors = 224000
Ave neighs/atom = 14
Neighbor list builds = 2
Dangerous builds = 2
Setting up Verlet run ...
  Unit style    : metal
  Current step  : 500
  Time step     : 0.001
Per MPI rank memory allocation (min/avg/max) = 4.354 | 4.355 | 4.355 Mbytes
   Step          Temp          PotEng         Press          Volume           Lx             Ly             Lz          Density    
       500   0.75583107    -224016.18     -0.038472041    1229284.5      107.12201      107.12473      107.12331      0.84503463   
       510   0.71215979    -224016.08     -2.5213214      1229284.3      107.122        107.12472      107.1233       0.84503479   
       520   0.69707581    -224016.03     -3.3653515      1229282.8      107.12196      107.12468      107.12326      0.84503579   
       530   0.721898      -224016.06     -1.8130377      1229279.7      107.12187      107.12459      107.12316      0.8450379    
       540   0.77153839    -224016.13      1.1078656      1229275.8      107.12176      107.12448      107.12305      0.84504062   
       550   0.8134111     -224016.18      3.3900233      1229272.4      107.12167      107.12437      107.12295      0.84504297   
       560   0.82428848    -224016.17      3.5748364      1229270.6      107.12162      107.12432      107.12289      0.84504419   
       570   0.80629896    -224016.1       1.7768605      1229270.6      107.12162      107.12432      107.12289      0.84504421   
       580   0.78330757    -224016.01     -0.54101385     1229271.4      107.12165      107.12434      107.12291      0.84504362   
       590   0.78072374    -224015.97     -1.7934479      1229272.1      107.12167      107.12436      107.12293      0.84504318   
       600   0.80549012    -224015.98     -1.4813857      1229271.9      107.12167      107.12435      107.12292      0.84504333   
       610   0.84211306    -224016.01     -0.43370333     1229270.9      107.12164      107.12432      107.12289      0.84504398   
       620   0.86710101    -224016.02      0.045936035    1229269.7      107.12161      107.12429      107.12285      0.8450448    
       630   0.86916988    -224015.98     -0.63849881     1229268.5      107.12158      107.12425      107.12282      0.84504564   
       640   0.85827756    -224015.91     -1.8681581      1229266.9      107.12153      107.1242       107.12278      0.84504674   
       650   0.85625827    -224015.86     -2.3859407      1229264.4      107.12146      107.12413      107.12271      0.84504847   
       660   0.8773263     -224015.85     -1.4429767      1229260.7      107.12135      107.12401      107.12261      0.84505101   
       670   0.9151531     -224015.88      0.47798952     1229256.3      107.12122      107.12388      107.12248      0.84505404   
       680   0.94764826    -224015.89      1.9966483      1229252.1      107.1211       107.12376      107.12236      0.84505694   
       690   0.95565847    -224015.85      1.9678005      1229248.8      107.12101      107.12366      107.12227      0.84505919   
       700   0.93996274    -224015.77      0.46981311     1229246.4      107.12094      107.12358      107.1222       0.8450608    
       710   0.92207285    -224015.67     -1.1966716      1229244.3      107.12089      107.12352      107.12214      0.84506226   
       720   0.92759434    -224015.63     -1.5376337      1229241.6      107.12082      107.12343      107.12206      0.84506411   
       730   0.96539835    -224015.65     -0.10336371     1229238.2      107.12073      107.12333      107.12195      0.84506646   
       740   1.0196513     -224015.7       2.0805752      1229234.7      107.12064      107.12322      107.12185      0.84506885   
       750   1.0615929     -224015.72      3.2696699      1229232.3      107.12057      107.12314      107.12177      0.84507054   
       760   1.0719872     -224015.68      2.3660455      1229231.4      107.12056      107.12311      107.12174      0.84507116   
       770   1.0563689     -224015.58     -0.19000291     1229231.6      107.12057      107.12312      107.12174      0.84507099   
       780   1.0408157     -224015.48     -2.7210961      1229231.8      107.12058      107.12312      107.12174      0.84507089   
       790   1.051568      -224015.44     -3.5766794      1229230.6      107.12056      107.12308      107.12171      0.8450717    
       800   1.0947974     -224015.46     -2.3617234      1229227.7      107.12048      107.12299      107.12162      0.84507372   
       810   1.1526399     -224015.5      -0.16568891     1229223.5      107.12036      107.12286      107.1215       0.84507656   
       820   1.1983719     -224015.52      1.3645512      1229219.2      107.12024      107.12273      107.12138      0.84507951   
       830   1.2181266     -224015.48      1.3361099      1229215.5      107.12014      107.12261      107.12128      0.84508206   
       840   1.221401      -224015.41      0.2385974      1229212.4      107.12006      107.12251      107.12119      0.84508419   
       850   1.2319133     -224015.35     -0.6026968      1229209.4      107.11999      107.1224       107.12111      0.84508625   
       860   1.266478      -224015.33     -0.26861665     1229206.1      107.1199       107.1223       107.12101      0.84508851   
       870   1.3194098     -224015.36      0.87160918     1229202.7      107.11982      107.12218      107.12091      0.84509087   
       880   1.3655258     -224015.36      1.3973681      1229199.7      107.11974      107.12208      107.12082      0.84509296   
       890   1.3796374     -224015.3       0.026875918    1229197.2      107.11969      107.122        107.12075      0.84509464   
       900   1.3568126     -224015.15     -3.2074629      1229194.7      107.11962      107.12191      107.12068      0.84509639   
       910   1.3168072     -224014.98     -6.7832658      1229190.4      107.11951      107.12177      107.12056      0.84509931   
       920   1.2887798     -224014.83     -8.6994109      1229182.7      107.1193       107.12154      107.12034      0.84510462   
       930   1.2885835     -224014.74     -7.8903807      1229170.5      107.11895      107.12117      107.11999      0.845113     
       940   1.3073832     -224014.69     -4.9114664      1229154.2      107.11848      107.12069      107.11952      0.84512424   
       950   1.321467      -224014.62     -1.340564       1229135.1      107.11793      107.12013      107.11896      0.84513736   
       960   1.3156432     -224014.52      1.6044627      1229115        107.11736      107.11953      107.11838      0.84515117   
       970   1.3006994     -224014.4       4.0624253      1229095.4      107.1168       107.11895      107.11781      0.84516462   
       980   1.3092753     -224014.32      7.2526898      1229077.7      107.1163       107.11843      107.11729      0.84517681   
       990   1.3716493     -224014.35      12.082707      1229063.5      107.1159       107.118        107.11688      0.84518656   
      1000   1.4897213     -224014.49      17.763698      1229055.4      107.11569      107.11775      107.11664      0.84519214   
      1010   1.6300351     -224014.67      21.647555      1229056.3      107.11573      107.11776      107.11667      0.84519155   
      1020   1.7425163     -224014.78      20.59885       1229068.1      107.11609      107.11809      107.11701      0.8451834    
      1030   1.7917848     -224014.75      13.020963      1229090.5      107.11676      107.11872      107.11766      0.84516799   
      1040   1.7781807     -224014.6       0.10758266     1229119.8      107.11762      107.11956      107.11851      0.84514784   
      1050   1.7337149     -224014.37     -14.570464      1229149.6      107.1185       107.12042      107.11938      0.84512735   
      1060   1.6975442     -224014.17     -26.826157      1229172.5      107.11917      107.12107      107.12004      0.84511161   
      1070   1.6907991     -224014.03     -33.716938      1229182.2      107.11947      107.12135      107.12032      0.84510498   
      1080   1.7095737     -224013.95     -34.316806      1229174.8      107.11926      107.12112      107.1201       0.84511003   
      1090   1.7388047     -224013.88     -29.173386      1229149.8      107.11855      107.12039      107.11936      0.84512722   
      1100   1.7722429     -224013.82     -19.268854      1229109.5      107.1174       107.11921      107.11818      0.84515498   
      1110   1.8194901     -224013.78     -5.5644569      1229058.5      107.11595      107.11771      107.11669      0.84519001   
      1120   1.8934918     -224013.79      10.503551      1229003.8      107.11438      107.1161       107.11509      0.84522765   
      1130   1.9901569     -224013.84      26.245242      1228953.4      107.11295      107.11462      107.11362      0.84526229   
      1140   2.0801629     -224013.87      37.75798       1228915.5      107.11187      107.11349      107.11251      0.8452884    
      1150   2.1240008     -224013.8       41.300901      1228895.9      107.11133      107.11291      107.11194      0.84530183   
      1160   2.1018685     -224013.6       35.348477      1228897        107.11138      107.11292      107.11197      0.8453011    
      1170   2.0357805     -224013.3       21.878475      1228916.1      107.11195      107.11345      107.11253      0.84528799   
      1180   1.984198      -224013.04      5.7494675      1228946.8      107.11286      107.11433      107.11342      0.84526687   
      1190   2.0085857     -224012.94     -7.7127257      1228981.2      107.11388      107.11531      107.11442      0.84524317   
      1200   2.1328736     -224013.03     -15.481235      1229012.7      107.11482      107.1162       107.11534      0.84522154   
      1210   2.3241997     -224013.26     -18.147571      1229037        107.11555      107.11688      107.11605      0.8452048    
      1220   2.5096925     -224013.45     -18.925618      1229052.6      107.11603      107.1173       107.1165       0.84519411   
      1230   2.6188155     -224013.48     -21.056358      1229058.6      107.11623      107.11744      107.11669      0.84518998   
      1240   2.6230281     -224013.28     -25.406788      1229053.7      107.11612      107.11725      107.11656      0.84519334   
      1250   2.5475886     -224012.92     -29.835907      1229035.5      107.11562      107.11668      107.11605      0.84520583   
      1260   2.4511483     -224012.52     -30.591528      1229001.6      107.11467      107.11564      107.11509      0.84522913   
      1270   2.3907821     -224012.21     -24.628431      1228951.4      107.11324      107.11413      107.11365      0.84526367   
      1280   2.396792      -224012.03     -11.30455       1228887.6      107.11142      107.11222      107.11181      0.84530756   
      1290   2.4695606     -224011.99      7.3807313      1228816.7      107.10939      107.11011      107.10977      0.84535635   
      1300   2.5918037     -224012.04      27.697899      1228748        107.10742      107.10807      107.10779      0.84540359   
      1310   2.740272      -224012.14      45.327384      1228692        107.10582      107.10641      107.10618      0.84544213   
      1320   2.8877948     -224012.21      56.119864      1228657.9      107.10484      107.10538      107.1052       0.84546562   
      1330   3.0009799     -224012.21      56.633744      1228651.6      107.10467      107.10517      107.10503      0.84546993   
      1340   3.0460709     -224012.06      44.984569      1228674        107.10534      107.1058       107.1057       0.84545451   
      1350   3.0079816     -224011.74      22.110333      1228719.8      107.10669      107.10709      107.10704      0.84542299   
      1360   2.9116211     -224011.3      -7.3037821      1228777.9      107.1084       107.10874      107.10874      0.84538303   
      1370   2.8248739     -224010.89     -35.420909      1228833.6      107.11005      107.11032      107.11038      0.84534468   
      1380   2.8301848     -224010.67     -53.904723      1228872.8      107.11123      107.1114       107.11153      0.84531776   
      1390   2.9745994     -224010.73     -57.67853       1228885.5      107.11164      107.11171      107.11192      0.84530899   
      1400   3.2300363     -224011.01     -47.605482      1228869.3      107.11121      107.11118      107.11146      0.84532018   
      1410   3.4966578     -224011.28     -30.092449      1228828.2      107.11006      107.10992      107.11029      0.8453484    
      1420   3.6563275     -224011.32     -13.420012      1228770.6      107.10843      107.10818      107.10864      0.84538807   
      1430   3.6464398     -224011        -2.8829319      1228704.3      107.10654      107.1062       107.10674      0.84543366   
      1440   3.5048399     -224010.41      2.0996509      1228634.7      107.10455      107.10413      107.10473      0.84548153   
      1450   3.3517919     -224009.81      6.8612762      1228564.6      107.10254      107.10206      107.10271      0.84552977   
      1460   3.3170496     -224009.47      17.017738      1228496.7      107.10058      107.10005      107.10075      0.84557653   
      1470   3.4594709     -224009.48      33.701304      1228436.3      107.09884      107.09827      107.099        0.84561812   
      1480   3.7332299     -224009.75      51.824498      1228392        107.09757      107.09696      107.09772      0.84564861   
      1490   4.0220996     -224010.02      62.623925      1228373.2      107.09704      107.09639      107.09719      0.84566154   
      1500   4.2157317     -224010.08      58.807378      1228385.8      107.09742      107.09673      107.09756      0.84565287   
      1510   4.275024      -224009.84      38.91824       1228428.5      107.09869      107.09794      107.0988       0.84562351   
      1520   4.2453598     -224009.43      8.1903291      1228491.8      107.10056      107.09975      107.10064      0.84557991   
      1530   4.2149605     -224009.01     -24.369375      1228560.7      107.1026       107.10171      107.10265      0.84553245   
      1540   4.25226       -224008.73     -50.479266      1228618.9      107.10434      107.10334      107.10435      0.84549241   
      1550   4.3668549     -224008.6      -65.72743       1228652.7      107.10537      107.10426      107.10536      0.84546914   
      1560   4.5176317     -224008.54     -69.763092      1228653.7      107.10544      107.10422      107.10541      0.84546846   
      1570   4.6553279     -224008.44     -64.222911      1228619        107.10448      107.10314      107.10442      0.84549234   
      1580   4.7625165     -224008.26     -50.567625      1228550.6      107.10254      107.10108      107.10246      0.84553941   
      1590   4.8599722     -224008.06     -29.641733      1228454.9      107.0998       107.09824      107.09969      0.84560531   
      1600   4.9784026     -224007.88     -2.996674       1228342        107.09655      107.09491      107.09643      0.84568301   
      1610   5.1232966     -224007.75      25.626229      1228225.3      107.09318      107.09147      107.09306      0.84576338   
      1620   5.2649315     -224007.6       50.424155      1228119.2      107.09012      107.08835      107.09         0.84583642   
      1630   5.3628281     -224007.34      65.649965      1228036.7      107.08773      107.08591      107.08763      0.84589329   
      1640   5.4038522     -224006.96      68.342032      1227985.8      107.08627      107.08438      107.08618      0.84592832   
      1650   5.4211837     -224006.53      59.653509      1227968.8      107.0858       107.08383      107.08572      0.84594004   
      1660   5.4769899     -224006.18      43.772056      1227982        107.08622      107.08415      107.08614      0.84593095   
      1670   5.6210201     -224006         25.238961      1228018        107.08732      107.08511      107.08721      0.84590617   
      1680   5.8564024     -224005.99      6.6430604      1228067.7      107.08884      107.08646      107.08867      0.8458719    
      1690   6.1378501     -224006.06     -11.741548      1228121.9      107.09052      107.08792      107.09026      0.84583459   
      1700   6.4017262     -224006.06     -30.410059      1228171        107.09205      107.08923      107.0917       0.84580075   
      1710   6.6034384     -224005.91     -48.663946      1228205.4      107.09316      107.09011      107.09271      0.84577708   
      1720   6.7352124     -224005.6      -63.871218      1228215.4      107.09355      107.09029      107.09301      0.84577019   
      1730   6.8168179     -224005.18     -72.42799       1228192.9      107.09299      107.08952      107.09238      0.8457857    
      1740   6.8741301     -224004.71     -71.50014       1228132.9      107.09132      107.08767      107.09067      0.84582698   
      1750   6.9259375     -224004.22     -60.173749      1228035.4      107.08854      107.08473      107.08789      0.84589416   
      1760   6.9866378     -224003.74     -39.394075      1227905.5      107.08481      107.08083      107.08418      0.84598368   
      1770   7.0753917     -224003.31     -11.250366      1227753.2      107.08043      107.07628      107.07983      0.84608861   
      1780   7.2151545     -224002.97      21.295578      1227592.6      107.07582      107.07148      107.07525      0.84619926   
      1790   7.4140432     -224002.73      53.806601      1227440.3      107.07145      107.06691      107.0709       0.84630426   
      1800   7.6419635     -224002.54      79.812787      1227312.9      107.06781      107.06308      107.06726      0.84639212   
      1810   7.8297419     -224002.24      91.837772      1227223.9      107.06528      107.06037      107.06473      0.8464535    
      1820   7.9076934     -224001.7       84.546822      1227180        107.06406      107.05898      107.06349      0.84648382   
      1830   7.8668348     -224000.92      58.562866      1227178.1      107.06407      107.05883      107.06347      0.84648514   
      1840   7.7959917     -224000.08      22.12053       1227205.9      107.06494      107.05955      107.0643       0.84646595   
      1850   7.8534547     -223999.5      -11.635302      1227245.7      107.06617      107.06063      107.06547      0.84643849   
      1860   8.1760372     -223999.46     -31.168181      1227280.8      107.06727      107.06157      107.0665       0.84641428   
      1870   8.7798058     -223999.96     -33.204909      1227301.2      107.06794      107.06209      107.06708      0.84640023   
      1880   9.5243802     -224000.68     -24.870441      1227305.2      107.06814      107.06214      107.06719      0.84639746   
      1890   10.177717     -224001.15     -19.183384      1227296.3      107.06796      107.06182      107.06691      0.84640356   
      1900   10.549856     -224001        -26.418632      1227276.9      107.06748      107.06119      107.06633      0.84641697   
      1910   10.609512     -224000.17     -46.88923       1227243        107.06659      107.06013      107.06533      0.84644037   
      1920   10.499566     -223999        -69.998718      1227184.2      107.06498      107.05833      107.0636       0.84648087   
      1930   10.436983     -223997.94     -81.267335      1227089.1      107.06235      107.05546      107.0608       0.84654651   
      1940   10.564664     -223997.27     -71.555558      1226951.6      107.0585       107.05136      107.05676      0.8466414    
      1950   10.859762     -223996.93     -42.965328      1226775.9      107.05357      107.04614      107.05158      0.84676259   
      1960   11.170216     -223996.58     -7.0840535      1226575.9      107.04796      107.04021      107.04567      0.84690068   
      1970   11.351218     -223995.94      23.240537      1226369.1      107.04217      107.03408      107.03953      0.84704354   
      1980   11.381899     -223994.97      41.608115      1226170.6      107.03663      107.0282       107.03363      0.84718062   
      1990   11.381809     -223993.94      50.045739      1225990.3      107.03165      107.02285      107.02823      0.84730524   
      2000   11.529823     -223993.2       56.086117      1225833        107.02735      107.01819      107.02345      0.84741391   
      2010   11.939179     -223992.98      63.910157      1225702.5      107.02386      107.01436      107.01937      0.84750415   
      2020   12.568809     -223993.17      69.66743       1225602.9      107.02131      107.01149      107.01609      0.84757304   
      2030   13.251741     -223993.41      64.825896      1225537.2      107.0198       107.00966      107.0137       0.84761847   
      2040   13.81234      -223993.34      40.57878       1225503.1      107.01924      107.00879      107.01215      0.84764208   
      2050   14.182188     -223992.83     -5.1808138      1225488.4      107.01925      107.00848      107.01117      0.84765225   
      2060   14.488671     -223992.16     -62.13212       1225470.4      107.01909      107.00808      107.01015      0.8476647    
      2070   14.975103     -223991.82     -112.49357      1225420.6      107.01787      107.00676      107.00834      0.84769915   
      2080   15.798667     -223992.14     -146.29286      1225313        107.01476      107.00372      107.00509      0.84777358   
      2090   16.889802     -223992.92     -160.57008      1225129.7      107.00926      106.9984       106.99991      0.84790041   
      2100   18.061906     -223993.78     -166.8967       1224861.9      107.00124      106.9905       106.99244      0.84808581   
      2110   19.245304     -223994.56     -166.62129      1224505.1      106.99074      106.97989      106.98238      0.84833293   
      2120   20.465296     -223995.31     -157.34702      1224058.6      106.97787      106.96654      106.96959      0.84864234   
      2130   21.814916     -223996.22     -142.35736      1223526.3      106.96274      106.95046      106.95427      0.84901155   
      2140   23.603283     -223997.9      -112.84019      1222915.9      106.94551      106.93167      106.93691      0.84943537   
      2150   26.183889     -224001.01     -60.470052      1222242.8      106.92646      106.91054      106.91823      0.84990314   
      2160   29.570683     -224005.49     -3.0210397      1221533.5      106.90604      106.88795      106.89919      0.85039664   
      2170   33.524157     -224010.79      14.288999      1220816.1      106.88478      106.86488      106.88073      0.85089634   
      2180   38.044212     -224016.89     -27.620524      1220099.7      106.86282      106.8415       106.86333      0.85139596   
      2190   43.386204     -224024.29     -112.24238      1219365        106.83962      106.81685      106.84682      0.85190898   
      2200   49.672659     -224033.19     -240.94436      1218570.4      106.81403      106.78929      106.83034      0.85246449   
      2210   56.995885     -224043.74     -408.30496      1217653.2      106.78425      106.75682      106.81219      0.85310659   
      2220   65.728737     -224056.69     -579.46089      1216534        106.74764      106.71749      106.78995      0.85389145   
      2230   76.299685     -224072.84     -723.27757      1215135        106.70159      106.66968      106.76099      0.85487458   
      2240   88.955151     -224092.62     -822.00168      1213399.7      106.64438      106.61215      106.72329      0.85609709   
      2250   103.91076     -224116.31     -877.38256      1211307.2      106.57541      106.54405      106.67633      0.85757602   
      2260   121.30624     -224144.03     -916.78186      1208876.1      106.49528      106.46513      106.62132      0.8593006    
      2270   141.15955     -224175.7      -982.58136      1206155.7      106.40578      106.37594      106.56014      0.86123869   
      2280   163.57274     -224211.46     -1110.4193      1203205.3      106.30915      106.27809      106.49404      0.8633506    
      2290   188.60897     -224251.51     -1320.5729      1200073.2      106.20701      106.17406      106.42314      0.86560388   
      2300   215.99922     -224295.45     -1629.4467      1196780.9      106.09978      106.06559      106.3471       0.8679851    
      2310   245.37644     -224342.89     -2013.4619      1193313.3      105.98725      105.95247      106.26488      0.87050734   
      2320   275.54019     -224391.74     -2422.6798      1189628.3      105.86848      105.83292      106.17538      0.87320383   
      2330   305.43459     -224440.38     -2860.5054      1185674        105.74203      105.70567      106.07654      0.87611604   
      2340   335.0685      -224489.5      -3270.3977      1181394.7      105.60604      105.56967      105.96614      0.87928949   
      2350   363.76852     -224538.24     -3636.0571      1176758.4      105.45905      105.42412      105.84333      0.8827538    
      2360   391.01686     -224586.12     -4005.1267      1171769.3      105.30102      105.26917      105.70812      0.88651234   
      2370   416.34739     -224632.9      -4371.0084      1166456.9      105.13305      105.10632      105.5603       0.89054983   
      2380   437.02968     -224673.4      -4679.7515      1160885.3      104.95802      104.93803      105.40003      0.89482398   
      2390   450.06475     -224701.92     -5016.1461      1155153.8      104.77986      104.76747      105.22902      0.89926376   
      2400   455.51562     -224719.06     -5380.3342      1149341.4      104.60054      104.59729      105.04966      0.90381153   
      2410   455.49751     -224729.18     -5699.9585      1143494        104.4205       104.42847      104.86467      0.90843327   
      2420   452.32506     -224736.63     -5937.2147      1137646.2      104.24026      104.2613       104.67636      0.91310286   
      2430   446.56017     -224741.78     -6048.34        1131834.2      104.06072      104.09605      104.48688      0.91779163   
      2440   437.90758     -224743.17     -6111.953       1126100.3      103.88272      103.93351      104.29853      0.92246488   
      2450   427.21794     -224741.83     -6115.6496      1120471.7      103.70694      103.77424      104.11265      0.92709883   
      2460   416.25148     -224740.47     -6004.9699      1114970.7      103.53423      103.61855      103.93026      0.9316729    
      2470   407.15864     -224742.47     -5775.6916      1109633.3      103.36607      103.46738      103.75238      0.93615427   
      2480   401.92359     -224751.09     -5446.5254      1104503.7      103.20428      103.32178      103.5804       0.94050208   
      2490   401.13652     -224767.01     -5050.3216      1099621.3      103.0502       103.18263      103.416        0.94467791   
      2500   403.95906     -224788.3      -4590.6883      1095017.2      102.90456      103.05114      103.26033      0.94864994   
      2510   408.77218     -224811.72     -4106.9048      1090715.1      102.76808      102.92867      103.11379      0.95239164   
      2520   413.57325     -224833.41     -3617.8926      1086729.9      102.64131      102.81562      102.97702      0.95588426   
      2530   417.1988      -224851.43     -3193.4539      1083064.1      102.52443      102.71144      102.85087      0.9591196    
      2540   419.43156     -224865.87     -2849.8544      1079698.3      102.41689      102.6149       102.73547      0.96210947   
      2550   419.45523     -224875.42     -2546.4784      1076600.7      102.31751      102.52517      102.62996      0.96487771   
      2560   416.92403     -224879.55     -2276.7042      1073742.1      102.22532      102.44176      102.53319      0.96744647   
      2570   412.82519     -224880.38     -2087.2926      1071095.5      102.13969      102.36377      102.4442       0.96983693   
      2580   408.48786     -224880.63     -1929.3933      1068626.2      102.05971      102.28986      102.36204      0.97207794   
      2590   404.2124      -224880.86     -1837.9998      1066303.4      101.98441      102.21924      102.28556      0.97419553   
      2600   400.20039     -224881.47     -1811.3297      1064090.5      101.91254      102.15138      102.21314      0.9762215    
      2610   396.84281     -224883.16     -1729.9657      1061950.4      101.84281      102.08538      102.1434       0.97818877   
      2620   393.60646     -224884.67     -1654.7096      1059872.2      101.77474      102.02085      102.07621      0.98010687   
      2630   390.05524     -224885.02     -1613.0607      1057850.2      101.70786      101.95795      102.01136      0.98198025   
      2640   386.22095     -224884.23     -1622.301       1055871.2      101.64178      101.89653      101.94814      0.9838207    
      2650   382.6367      -224883.32     -1651.9399      1053913.2      101.57607      101.83582      101.88562      0.98564847   
      2660   380.46667     -224884.62     -1656.5739      1051956.5      101.51005      101.77499      101.82342      0.98748191   
      2670   379.9357      -224888.51     -1605.5172      1049995.5      101.44336      101.71376      101.76164      0.98932617   
      2680   379.6154      -224891.91     -1463.0363      1048047.3      101.37656      101.65242      101.7011       0.99116513   
      2690   378.54912     -224892.72     -1306.7224      1046150.9      101.31129      101.59182      101.64307      0.99296191   
      2700   376.56361     -224890.54     -1162.3517      1044339        101.24879      101.53323      101.58824      0.99468466   
      2710   374.77187     -224887.62     -1019.2256      1042630.9      101.18952      101.47781      101.53692      0.99631417   
      2720   374.1313      -224885.89     -904.37744      1041039        101.13384      101.42615      101.48938      0.99783768   
      2730   374.33271     -224884.75     -822.09803      1039563.3      101.0821       101.37809      101.44544      0.99925423   
      2740   374.83076     -224883.14     -805.97689      1038191.6      101.0342       101.33306      101.40467      1.0005745    
      2750   375.35185     -224880.56     -791.43671      1036898.2      100.98922      101.29038      101.36613      1.0018225    
      2760   376.7879      -224878.89     -730.65029      1035663.4      100.94637      101.24958      101.32923      1.003017     
      2770   379.92593     -224879.79     -650.5472       1034485.9      100.90573      101.21076      101.29362      1.0041586    
      2780   383.6239      -224881        -552.57314      1033372.7      100.86784      101.17412      101.25928      1.0052404    
      2790   386.25706     -224879.33     -498.65313      1032332.7      100.83311      101.13992      101.22644      1.0062531    
      2800   387.2853      -224873.85     -467.05825      1031362.8      100.80107      101.108        101.19541      1.0071994    
      2810   387.34641     -224865.99     -454.90937      1030452.6      100.77096      101.07783      101.16651      1.008089     
      2820   387.93451     -224858.88     -424.94329      1029590.5      100.74226      101.04896      101.13954      1.0089331    
      2830   389.42553     -224853.31     -387.85873      1028770.9      100.71501      101.02124      101.11411      1.009737     
      2840   391.73616     -224849.18     -364.94369      1027992.9      100.6895       100.99469      101.08981      1.0105011    
      2850   394.41502     -224845.65     -374.3964       1027251.7      100.66547      100.96945      101.06629      1.0112303    
      2860   397.14538     -224842.19     -395.12634      1026534.6      100.64228      100.94527      101.04321      1.0119367    
      2870   400.22681     -224839.52     -385.63521      1025828.5      100.61923      100.92173      101.0204       1.0126331    
      2880   403.33035     -224837.04     -325.81348      1025133        100.59607      100.89879      100.9981       1.0133202    
      2890   406.05933     -224834.04     -246.94282      1024462.9      100.57325      100.87682      100.97697      1.0139831    
      2900   408.21153     -224830.2      -197.53316      1023834.5      100.55131      100.85628      100.95762      1.0146054    
      2910   410.06447     -224826.18     -130.83178      1023256.7      100.53036      100.83731      100.94064      1.0151783    
      2920   411.08518     -224820.94     -110.33219      1022737.1      100.51067      100.8203       100.92618      1.015694     
      2930   411.2498      -224814.5      -141.86569      1022270.5      100.49221      100.80545      100.91353      1.0161577    
      2940   411.0049      -224807.77     -190.70348      1021837.1      100.47419      100.79264      100.90166      1.0165886    
      2950   410.40832     -224800.87     -231.93154      1021414.8      100.45584      100.78147      100.88956      1.017009     
      2960   410.44683     -224795.78     -247.59086      1020987.3      100.4369       100.77151      100.87632      1.0174348    
      2970   411.71846     -224793.72     -202.80987      1020550.9      100.4177       100.76218      100.86183      1.0178699    
      2980   413.63415     -224793.49     -134.51059      1020119.2      100.39921      100.75326      100.84667      1.0183006    
      2990   415.22745     -224793.14     -49.829125      1019712.2      100.38238      100.74507      100.83153      1.0187071    
      3000   415.97209     -224791.67      47.058906      1019352.8      100.36776      100.73839      100.81735      1.0190662    
      3010   415.50203     -224788.36      96.549781      1019062.5      100.35549      100.73425      100.8051       1.0193565    
      3020   414.46665     -224784.55      135.10218      1018848        100.34527      100.73325      100.79515      1.0195711    
      3030   413.57011     -224781.65      181.11748      1018709.1      100.33705      100.73547      100.78745      1.0197101    
      3040   413.10034     -224780.23      230.45104      1018650.6      100.33136      100.74043      100.78242      1.0197687    
      3050   412.74996     -224779.61      239.09683      1018674.9      100.32832      100.74761      100.78069      1.0197443    
      3060   412.42359     -224779.6       207.8388       1018772.5      100.32748      100.75626      100.78253      1.0196467    
      3070   412.39806     -224780.75      120.259        1018922.5      100.32815      100.76555      100.78741      1.0194966    
      3080   412.6874      -224783.08      49.907919      1019092.4      100.32922      100.77476      100.79392      1.0193266    
      3090   412.71132     -224785.38     -5.3388333      1019255.9      100.32977      100.78353      100.80077      1.0191631    
      3100   411.81568     -224786.32     -42.588514      1019395.4      100.32936      100.79149      100.80702      1.0190236    
      3110   409.73605     -224785.28     -56.395935      1019503.3      100.32794      100.79831      100.81229      1.0189158    
      3120   407.22737     -224783.73     -70.625108      1019578.3      100.32582      100.8039       100.81625      1.0188408    
      3130   405.96361     -224785.03     -47.150919      1019621.3      100.32319      100.80859      100.81846      1.0187978    
      3140   406.07861     -224789.42      24.899305      1019644.7      100.32046      100.8131       100.81901      1.0187744    
      3150   406.19817     -224794.06      81.683115      1019673        100.31811      100.81842      100.81884      1.0187462    
      3160   405.52797     -224797.3       139.1306       1019725.7      100.31649      100.82548      100.81862      1.0186935    
      3170   403.62717     -224798.18      168.92458      1019817.8      100.31619      100.8349       100.8186       1.0186016    
      3180   400.79826     -224797.24      162.08427      1019953.8      100.31761      100.84684      100.81868      1.0184658    
      3190   397.89204     -224796.1       126.71488      1020127.4      100.32027      100.86083      100.81918      1.0182924    
      3200   395.83226     -224796.55     -11.794789      1020319.9      100.32273      100.87574      100.82083      1.0181003    
      3210   395.17184     -224799.66     -147.07388      1020486.3      100.32294      100.88945      100.82335      1.0179343    
      3220   395.07709     -224803.73     -233.09173      1020585.7      100.3195       100.90023      100.82586      1.0178352    
      3230   394.90006     -224807.4      -280.98617      1020597        100.31182      100.9073       100.82764      1.0178239    
      3240   394.56979     -224810.55     -261.03552      1020515        100.29994      100.91042      100.82836      1.0179057    
      3250   394.52019     -224814.05     -177.4165       1020357.1      100.28496      100.9102       100.82803      1.0180632    
      3260   394.84525     -224818.08     -82.59303       1020158.3      100.26864      100.90806      100.82694      1.0182616    
      3270   394.85411     -224821.23      14.153845      1019954.5      100.25248      100.90546      100.82564      1.018465     
      3280   393.90134     -224822.14      107.23113      1019778.3      100.23745      100.90349      100.8253       1.018641     
      3290   392.38676     -224821.63      166.20553      1019656.1      100.2245       100.90263      100.82711      1.018763     
      3300   390.86842     -224820.79      134.23739      1019599.8      100.21429      100.9029       100.83155      1.0188194    
      3310   389.6626      -224820.22      48.314087      1019592.7      100.20665      100.90359      100.83785      1.0188264    
      3320   389.20422     -224820.78     -16.541834      1019602.9      100.20044      100.90388      100.84482      1.0188163    
      3330   388.80657     -224821.02     -60.982381      1019606.1      100.19459      100.90317      100.85173      1.018813     
      3340   388.91516     -224821.87     -40.126326      1019590.6      100.18848      100.90143      100.85808      1.0188285    
      3350   389.56676     -224823.39     -10.839304      1019563.3      100.18245      100.89913      100.86375      1.0188558    
      3360   390.17882     -224824.42      16.620494      1019535        100.17666      100.89686      100.86905      1.0188841    
      3370   390.38735     -224824.21      50.575967      1019515.4      100.17099      100.89494      100.87474      1.0189037    
      3380   390.11694     -224822.63      75.727672      1019514.4      100.16515      100.89381      100.88164      1.0189047    
      3390   389.96608     -224820.9       72.081185      1019538.3      100.15902      100.89395      100.89006      1.0188807    
      3400   390.70563     -224820.6       37.780071      1019583.8      100.15283      100.89525      100.89949      1.0188354    
      3410   392.02332     -224821.12     -21.151799      1019636        100.14694      100.89703      100.90881      1.0187831    
      3420   393.3271      -224821.28     -60.366713      1019676.2      100.14127      100.89863      100.91691      1.018743     
      3430   394.25306     -224820.38     -94.216736      1019692.4      100.13563      100.89977      100.92305      1.0187268    
      3440   395.06974     -224819.02     -141.97715      1019674.8      100.1296       100.9001       100.92706      1.0187444    
      3450   396.52918     -224818.8      -192.92054      1019610.9      100.12271      100.89907      100.92871      1.0188082    
      3460   398.34145     -224819.18     -223.14358      1019489        100.11496      100.89612      100.92741      1.01893      
      3470   400.39621     -224819.99     -188.93219      1019305.5      100.10678      100.89104      100.92257      1.0191135    
      3480   402.22559     -224820.34     -78.037521      1019077.7      100.09874      100.88464      100.91451      1.0193413    
      3490   403.18538     -224818.97      3.5756087      1018843.3      100.09154      100.87841      100.9048       1.0195758    
      3500   403.04125     -224815.44      56.772411      1018631.3      100.08557      100.87306      100.89516      1.019788     
      3510   402.35628     -224810.93      115.0992       1018458.1      100.08091      100.86926      100.88651      1.0199614    
      3520   401.60429     -224806.39      127.64063      1018337.5      100.07737      100.86806      100.87933      1.0200822    
      3530   400.89021     -224802.02      69.605064      1018268.5      100.0745       100.86964      100.8738       1.0201514    
      3540   400.53311     -224798.43      8.17961        1018229.4      100.0715       100.87299      100.8696       1.0201905    
      3550   400.71107     -224795.99     -58.548599      1018195.7      100.06774      100.87679      100.86626      1.0202242    
      3560   401.62192     -224795.09     -97.299564      1018145.7      100.06254      100.88005      100.86329      1.0202744    
      3570   403.11864     -224795.48     -72.773989      1018069        100.05546      100.88216      100.86071      1.0203513    
      3580   404.22973     -224795.2      -18.975291      1017975.8      100.04702      100.88295      100.8592       1.0204447    
      3590   404.03483     -224792.38     -21.94539       1017882.5      100.03816      100.88254      100.8593       1.0205382    
      3600   402.67411     -224787.32     -12.868758      1017790.7      100.02947      100.88089      100.86062      1.0206302    
      3610   401.61673     -224783.01      20.792716      1017703.2      100.02157      100.8782       100.8626       1.020718     
      3620   401.75012     -224781.24      63.871294      1017630.5      100.01524      100.87522      100.86475      1.0207909    
      3630   402.90336     -224781.65      71.252093      1017584        100.01097      100.87266      100.86701      1.0208376    
      3640   404.71899     -224783.55      22.186279      1017562.5      100.00876      100.87092      100.86884      1.0208592    
      3650   406.50144     -224785.57      32.33363       1017552.4      100.00831      100.86999      100.86924      1.0208692    
      3660   407.49134     -224786.23      54.093685      1017554.9      100.00964      100.87006      100.86807      1.0208668    
      3670   407.39737     -224784.95      51.467441      1017575        100.01221      100.87159      100.86594      1.0208466    
      3680   406.29214     -224781.89      75.426585      1017612.1      100.01516      100.87477      100.86346      1.0208094    
      3690   405.15937     -224779.04      98.654252      1017672.3      100.0181       100.87965      100.86158      1.020749     
      3700   405.29097     -224779.03      36.006893      1017757.8      100.02096      100.8859       100.86092      1.0206632    
      3710   406.85648     -224782.21     -19.8195        1017849        100.02315      100.89245      100.86122      1.0205718    
      3720   408.11407     -224785.03     -40.874204      1017926.7      100.02433      100.89841      100.86175      1.0204939    
      3730   407.77994     -224784.9      -32.94738       1017984.6      100.02476      100.90326      100.86221      1.0204359    
      3740   406.58505     -224783.31     -4.0810604      1018028.3      100.02482      100.90686      100.86288      1.020392     
      3750   405.04798     -224781.29     -25.40691       1018066        100.0249       100.90929      100.86411      1.0203542    
      3760   403.25823     -224778.95     -102.55354      1018090.1      100.025        100.91025      100.86543      1.0203302    
      3770   401.51867     -224776.85     -140.39907      1018078.4      100.02461      100.90897      100.86595      1.0203419    
      3780   400.66194     -224776.63     -116.99418      1018020.8      100.02364      100.90495      100.86525      1.0203995    
      3790   400.98142     -224778.89     -37.320975      1017929.8      100.02309      100.89821      100.86352      1.0204908    
      3800   401.58853     -224781.78      64.479712      1017833.9      100.0244       100.88932      100.86158      1.0205869    
      3810   401.54768     -224783.4       163.41224      1017767.2      100.02895      100.87955      100.86015      1.0206538    
      3820   400.29478     -224782.58      194.52574      1017759.1      100.03788      100.87025      100.85964      1.020662     
      3830   398.26903     -224780.17      178.03344      1017816.6      100.05143      100.86231      100.85962      1.0206043    
      3840   396.54382     -224778.3       129.70818      1017929.1      100.06884      100.85596      100.85957      1.0204915    
      3850   396.20478     -224779.15      67.124251      1018077.1      100.08848      100.85106      100.85934      1.0203432    
      3860   397.33268     -224782.87     -19.425741      1018236.2      100.10853      100.84718      100.85877      1.0201838    
      3870   398.52464     -224786.59     -89.584209      1018377.5      100.12727      100.84338      100.85769      1.0200422    
      3880   398.59266     -224787.93     -136.73152      1018478.5      100.14327      100.83882      100.85614      1.019941     
      3890   397.27258     -224786.32     -159.01627      1018526.1      100.15546      100.83326      100.85414      1.0198933    
      3900   395.60378     -224783.87     -158.84136      1018516.6      100.16296      100.82733      100.85157      1.0199029    
      3910   394.86989     -224783.18     -127.59372      1018454.5      100.16563      100.82168      100.8484       1.019965     
      3920   395.81464     -224785.78     -46.656188      1018354.8      100.16432      100.81653      100.84499      1.0200649    
      3930   397.55506     -224789.86      28.076017      1018245.7      100.16032      100.81233      100.84241      1.0201742    
      3940   398.49103     -224792.16      86.409119      1018153.1      100.15465      100.80913      100.84215      1.0202669    
      3950   398.64294     -224792.79      170.92268      1018097.8      100.1481       100.80679      100.84561      1.0203224    
      3960   398.19991     -224792.15      178.38242      1018101.7      100.14155      100.80557      100.85382      1.0203185    
      3970   397.208       -224790.3       142.83496      1018164.4      100.13537      100.80547      100.86636      1.0202556    
      3980   396.45282     -224788.82      135.53316      1018271.6      100.1298       100.80624      100.88181      1.0201483    
      3990   396.23516     -224788.3       91.316637      1018415.8      100.12564      100.80778      100.89875      1.0200038    
      4000   396.65035     -224788.91     -2.3127254      1018579.6      100.12321      100.80971      100.91549      1.0198398    
      4010   397.82604     -224790.96     -68.84042       1018732.3      100.12213      100.81133      100.93009      1.0196869    
      4020   399.22098     -224793.36     -109.65782      1018852.2      100.12168      100.81261      100.94114      1.0195669    
      4030   400.57056     -224795.64     -130.56237      1018926.4      100.12121      100.81373      100.94783      1.0194927    
      4040   401.69341     -224797.48     -107.30206      1018952.7      100.12055      100.81467      100.95017      1.0194663    
      4050   402.34047     -224798.4      -65.749133      1018941        100.11991      100.81534      100.94899      1.019478     
      4060   402.61516     -224798.66      26.445138      1018909.3      100.1196       100.81602      100.94547      1.0195098    
      4070   402.53541     -224798.29      96.011223      1018888        100.12029      100.81733      100.94137      1.0195311    
      4080   401.9132      -224796.9       99.890791      1018899.2      100.1221       100.81989      100.93808      1.0195199    
      4090   401.1659      -224795.33      47.070421      1018942.3      100.12476      100.82352      100.93604      1.0194767    
      4100   400.86444     -224794.74      13.218186      1018999.3      100.12767      100.82711      100.93515      1.0194197    
      4110   400.88935     -224794.85     -10.322871      1019057.3      100.13024      100.82976      100.93565      1.0193617    
      4120   400.9282      -224795.03     -16.719295      1019109.2      100.13212      100.83122      100.93744      1.0193098    
      4130   401.08175     -224795.49     -15.626235      1019152.8      100.13351      100.83177      100.9398       1.0192662    
      4140   400.76474     -224795.02     -12.970307      1019188.5      100.13479      100.83167      100.94215      1.0192305    
      4150   400.05837     -224793.77      28.658087      1019218.8      100.13615      100.83106      100.94439      1.0192001    
      4160   398.83322     -224791.45      17.296491      1019255.4      100.13815      100.83016      100.94689      1.0191636    
      4170   397.99134     -224789.87     -24.591699      1019294.9      100.14086      100.82867      100.94958      1.0191241    
      4180   398.22397     -224790.44     -50.74647       1019323.3      100.14362      100.82628      100.952        1.0190956    
      4190   399.13675     -224792.35     -23.990905      1019334.5      100.14587      100.82304      100.95409      1.0190845    
      4200   399.68676     -224793.46     -5.6653666      1019336.8      100.14719      100.81967      100.95636      1.0190822    
      4210   399.57467     -224793.19      12.321496      1019337.6      100.14745      100.81666      100.95918      1.0190814    
      4220   399.81628     -224793.64     -18.829058      1019340.7      100.14663      100.81435      100.96264      1.0190783    
      4230   400.80828     -224795.63      1.3583897      1019338.9      100.14452      100.81281      100.96613      1.0190801    
      4240   402.14349     -224798.37      67.040746      1019339.3      100.14166      100.81255      100.96931      1.0190797    
      4250   402.57058     -224799.32      64.133293      1019360.7      100.13881      100.81447      100.97238      1.0190583    
      4260   401.66397     -224797.62     -3.9071771      1019400.5      100.13566      100.81893      100.97502      1.0190185    
      4270   400.08574     -224794.6      -79.157755      1019436.4      100.13105      100.82551      100.97664      1.0189827    
      4280   398.72383     -224792.03     -84.633988      1019445.5      100.12402      100.83329      100.97685      1.0189736    
      4290   398.67249     -224792.13     -38.442091      1019426        100.11473      100.84179      100.97577      1.018993     
      4300   399.97426     -224794.97     -17.251611      1019392.9      100.10411      100.85117      100.97381      1.0190261    
      4310   401.34656     -224797.97     -22.694833      1019354.7      100.09291      100.86169      100.97081      1.0190643    
      4320   401.76212     -224799.03     -40.617433      1019310.8      100.08172      100.87292      100.96648      1.0191082    
      4330   400.71169     -224797.11     -53.301307      1019255.6      100.07096      100.88387      100.96092      1.0191634    
      4340   398.76731     -224793.37     -78.855275      1019184.9      100.06106      100.89347      100.9543       1.0192341    
      4350   397.09101     -224790.12     -90.297502      1019092.4      100.05212      100.90071      100.94691      1.0193266    
      4360   396.51051     -224789.03     -85.39385       1018974.7      100.04407      100.90513      100.93895      1.0194444    
      4370   396.77827     -224789.56     -51.477161      1018835.4      100.03671      100.90699      100.93072      1.0195837    
      4380   397.01729     -224789.9       12.526446      1018687.1      100.03043      100.90664      100.92272      1.0197322    
      4390   396.70386     -224788.96      62.77636       1018551.3      100.02586      100.90491      100.91561      1.0198681    
      4400   395.9922      -224787.06      50.727191      1018442.3      100.02337      100.90237      100.90986      1.0199772    
      4410   396.05526     -224786.61      53.505378      1018357.1      100.02302      100.89881      100.90532      1.0200626    
      4420   396.55492     -224786.91      82.303958      1018295.9      100.02468      100.89445      100.90195      1.0201239    
      4430   397.44731     -224787.87      108.63603      1018266.6      100.02798      100.8902       100.89996      1.0201532    
      4440   398.5668      -224789.2       124.84328      1018276.7      100.03227      100.88697      100.89987      1.0201431    
      4450   399.63569     -224790.36      128.3668       1018328.7      100.03736      100.88456      100.90229      1.020091     
      4460   400.98373     -224792.1       132.37221      1018422.3      100.04364      100.88224      100.90755      1.0199973    
      4470   402.52078     -224794.27      107.18153      1018555.2      100.05138      100.87986      100.91529      1.0198642    
      4480   403.34788     -224795.06      46.377002      1018715.8      100.06016      100.87768      100.92454      1.0197034    
      4490   403.15302     -224793.87      8.0819258      1018884.5      100.06934      100.87595      100.93372      1.0195346    
      4500   402.00714     -224790.83     -27.605609      1019046.4      100.07866      100.87465      100.94166      1.0193726    
      4510   400.32074     -224786.76     -62.511291      1019190.7      100.08827      100.87287      100.94804      1.0192283    
      4520   398.89126     -224783.24     -96.989505      1019306.4      100.09792      100.86986      100.95278      1.0191126    
      4530   398.45349     -224781.73     -125.66723      1019383        100.10669      100.86542      100.95596      1.019036     
      4540   398.88243     -224781.94     -166.44283      1019411.8      100.11364      100.85973      100.9575       1.0190072    
      4550   399.36915     -224782.23     -164.78889      1019383.2      100.11786      100.85301      100.95715      1.0190358    
      4560   399.97407     -224782.75     -119.64742      1019300.6      100.11893      100.84614      100.95476      1.0191184    
      4570   400.68444     -224783.48     -73.893422      1019181.9      100.11747      100.84005      100.95057      1.0192371    
      4580   401.00069     -224783.42     -21.755938      1019044.5      100.11477      100.83489      100.94486      1.0193745    
      4590   400.94784     -224782.64      65.664121      1018908.2      100.11193      100.83094      100.93817      1.0195109    
      4600   400.41283     -224780.88      184.37645      1018802.8      100.10994      100.829        100.93167      1.0196164    
      4610   400.15343     -224779.73      244.68468      1018764.1      100.11005      100.83005      100.92667      1.0196551    
      4620   400.39886     -224779.63      221.33618      1018809.2      100.11306      100.83433      100.92382      1.01961      
      4630   400.76614     -224779.81      128.79745      1018926        100.11881      100.8408       100.92313      1.019493     
      4640   401.42609     -224780.62      76.142954      1019082.5      100.12613      100.84773      100.92431      1.0193365    
      4650   403.24028     -224783.88      85.419846      1019259.2      100.13419      100.85427      100.92713      1.0191598    
      4660   405.37244     -224787.93      62.425921      1019455.4      100.14284      100.86061      100.93151      1.0189637    
      4670   406.75135     -224790.64      11.833522      1019662.6      100.15193      100.86647      100.93699      1.0187566    
      4680   406.82795     -224790.93     -66.091885      1019862.5      100.1611       100.87135      100.94265      1.0185569    
      4690   405.28208     -224788.14     -128.81942      1020029.9      100.16941      100.8743       100.9479       1.0183897    
      4700   402.71827     -224783.46     -189.26529      1020144        100.17604      100.8742       100.95261      1.0182758    
      4710   400.25321     -224779.1      -221.18917      1020188.7      100.1805       100.87056      100.95617      1.0182313    
      4720   399.07473     -224777.42     -207.20467      1020156.9      100.18252      100.86331      100.95825      1.0182629    
      4730   399.0193      -224778.04     -182.56119      1020055.6      100.18195      100.8528       100.95931      1.0183641    
      4740   399.75745     -224780.27     -113.82981      1019897.3      100.17895      100.83987      100.95962      1.0185222    
      4750   401.12129     -224783.77      44.507751      1019710.6      100.17433      100.82602      100.95965      1.0187087    
      4760   402.23702     -224786.78      159.29991      1019547.2      100.16993      100.81357      100.96038      1.0188719    
      4770   402.28485     -224787.67      208.74666      1019445.3      100.1673       100.80398      100.96254      1.0189738    
      4780   401.31615     -224786.56      187.09787      1019417.6      100.16709      100.7975       100.96651      1.0190014    
      4790   400.00107     -224784.8       113.41326      1019453.7      100.16926      100.79353      100.97187      1.0189653    
      4800   398.92973     -224783.53      46.283185      1019527.7      100.17321      100.79113      100.97762      1.0188914    
      4810   398.11349     -224782.75     -20.578648      1019615        100.17816      100.78951      100.98289      1.0188042    
      4820   397.47868     -224782.26     -70.240868      1019692.1      100.18304      100.788        100.98712      1.0187271    
      4830   397.18568     -224782.37     -96.862948      1019742.3      100.18705      100.78633      100.98973      1.018677     
      4840   397.28047     -224783.17     -119.02991      1019756.4      100.18971      100.78429      100.99049      1.0186628    
      4850   397.31911     -224783.75     -110.70108      1019729.2      100.19033      100.78162      100.98985      1.01869      
      4860   397.12138     -224783.73     -79.415834      1019665.8      100.1884       100.77816      100.98898      1.0187533    
      4870   397.38767     -224784.55     -6.7111209      1019579.1      100.18388      100.77403      100.98909      1.01884      
      4880   398.29246     -224786.59      112.64595      1019495.3      100.17744      100.77005      100.99127      1.0189237    
      4890   399.22761     -224788.63      125.0471       1019450.3      100.17046      100.76752      100.99638      1.0189687    
      4900   400.00566     -224790.3       59.127732      1019448.7      100.16382      100.76667      101.00378      1.0189703    
      4910   400.27609     -224790.92     -16.958722      1019467.4      100.15751      100.76668      101.01198      1.0189516    
      4920   400.17117     -224790.78     -54.170017      1019480.7      100.15132      100.76668      101.01954      1.0189383    
      4930   399.76167     -224790        -96.96657       1019473.9      100.14498      100.76611      101.02582      1.0189452    
      4940   399.78114     -224790.11     -110.14902      1019434.6      100.13784      100.76456      101.03069      1.0189845    
      4950   400.30081     -224791.26     -58.548987      1019362.3      100.12931      100.76206      101.03463      1.0190567    
      4960   400.65344     -224792.07     -78.629621      1019270.2      100.11932      100.75892      101.03873      1.0191488    
      4970   400.4724      -224791.81     -53.667281      1019156.7      100.10772      100.75495      101.04318      1.0192623    
      4980   399.94508     -224790.85     -3.8323048      1019029.8      100.09506      100.7502       101.04813      1.0193892    
      4990   399.32208     -224789.68      61.87935       1018907.6      100.0824       100.74509      101.05393      1.0195115    
      5000   399.03308     -224789.17      114.25852      1018811.8      100.07069      100.74036      101.06099      1.0196074    
      5010   399.06679     -224789.28      105.30303      1018758        100.0608       100.73686      101.06915      1.0196612    
      5020   399.40412     -224789.98      29.169403      1018740.6      100.05318      100.73471      101.07728      1.0196786    
      5030   400.32425     -224791.86     -15.724399      1018735        100.04744      100.73319      101.08405      1.0196842    
      5040   401.40949     -224794.1       6.4735358      1018726.1      100.04287      100.73195      101.08903      1.0196931    
      5050   402.00701     -224795.39      47.104703      1018719.5      100.03914      100.73119      101.09291      1.0196997    
      5060   402.31758     -224796.17      105.11468      1018729.8      100.03626      100.73118      101.09685      1.0196894    
      5070   401.92196     -224795.59      135.57167      1018774.8      100.03474      100.73244      101.1016       1.0196444    
      5080   400.55142     -224793.07      102.23401      1018862.4      100.03496      100.7351       101.10739      1.0195567    
      5090   398.88633     -224789.97      33.63026       1018981.2      100.0365       100.73868      101.11402      1.0194379    
      5100   397.44733     -224787.27     -47.723616      1019106.1      100.03841      100.74242      101.12075      1.0193129    
      5110   396.86303     -224786.24     -119.64258      1019209.3      100.03991      100.74544      101.12644      1.0192097    
      5120   397.10083     -224786.78     -164.99654      1019267.9      100.04062      100.74712      101.12984      1.0191511    
      5130   397.91104     -224788.4      -206.22579      1019266.5      100.04063      100.74709      101.12972      1.0191525    
      5140   398.71127     -224789.92     -205.21707      1019195.1      100.04028      100.74486      101.12524      1.0192238    
      5150   399.25592     -224790.87     -142.72665      1019058        100.03999      100.7401       101.1167       1.019361     
      5160   399.74534     -224791.67     -18.724237      1018879        100.03987      100.73357      101.10562      1.01954      
      5170   399.83025     -224791.59      106.81351      1018701        100.04021      100.72708      101.09412      1.0197183    
      5180   399.28351     -224790.2       179.7098       1018565.5      100.04168      100.72253      101.08375      1.0198539    
      5190   398.93499     -224789.18      193.48208      1018495.3      100.04469      100.72093      101.07534      1.0199242    
      5200   399.57194     -224790.18      185.53802      1018493.6      100.04915      100.72245      101.06916      1.0199259    
      5210   400.40815     -224791.58      169.39332      1018556        100.0547       100.727        101.06516      1.0198634    
      5220   400.86617     -224792.21      116.60039      1018674        100.06086      100.73457      101.06306      1.0197453    
      5230   401.15257     -224792.52      35.772222      1018826.4      100.06685      100.74447      101.0622       1.0195927    
      5240   401.11463     -224792.21     -2.9505518      1018987.2      100.07166      100.75569      101.06203      1.0194318    
      5250   400.80038     -224791.36     -73.589874      1019140        100.07466      100.76744      101.06237      1.019279     
      5260   400.17683     -224789.9      -182.06908      1019260.5      100.07535      100.77866      101.06237      1.0191585    
      5270   399.71215     -224788.77     -244.82091      1019315.3      100.07285      100.78808      101.06088      1.0191037    
      5280   400.27952     -224789.79     -248.78321      1019285.4      100.06643      100.7952       101.05727      1.0191335    
      5290   401.41274     -224792.01     -229.23425      1019171        100.0559       100.80036      101.05139      1.0192479    
      5300   402.07012     -224793.31     -161.24321      1018983.2      100.04195      100.80393      101.04327      1.0194358    
      5310   401.9529      -224793.07     -66.840802      1018746.7      100.02594      100.80623      101.03369      1.0196725    
      5320   400.94478     -224791.05      52.12782       1018496.9      100.00974      100.80783      101.02366      1.0199226    
      5330   399.53443     -224788.21      106.39254      1018272.2      99.995457      100.80948      101.01416      1.0201476    
      5340   398.86685     -224786.89      157.3511       1018092.7      99.98436       100.8113       101.00573      1.0203276    
      5350   399.40137     -224788.02      170.81044      1017972.8      99.976923      100.81369      100.99896      1.0204477    
      5360   400.77998     -224790.89      130.44381      1017914.8      99.972752      100.81701      100.99408      1.0205059    
      5370   401.788       -224793.02      113.85271      1017905.2      99.97072       100.8214       100.9908       1.0205155    
      5380   401.62507     -224792.81      64.731606      1017934.4      99.97019       100.8269       100.98872      1.0204862    
      5390   400.91656     -224791.53     -26.09994       1017983.9      99.970936      100.83264      100.98712      1.0204366    
      5400   400.71731     -224791.34     -79.264952      1018023.8      99.97245       100.83708      100.9851       1.0203966    
      5410   400.94487     -224792.07     -37.955447      1018038.2      99.974528      100.83895      100.98256      1.0203822    
      5420   400.83184     -224792.13      30.275663      1018040.1      99.977586      100.83836      100.98026      1.0203802    
      5430   400.30761     -224791.38      55.007233      1018050.7      99.981919      100.83644      100.97885      1.0203696    
      5440   400.00332     -224791.09      89.313503      1018080.9      99.987502      100.83419      100.97847      1.0203393    
      5450   399.9643      -224791.36      121.91345      1018141.3      99.99439       100.8326       100.9791       1.0202788    
      5460   399.79996     -224791.37      119.38902      1018240.1      100.00228      100.83295      100.98057      1.0201798    
      5470   399.31355     -224790.7       51.907201      1018374.8      100.01033      100.83624      100.98249      1.0200449    
      5480   398.63199     -224789.59     -48.263618      1018521.8      100.0174       100.84192      100.98426      1.0198976    
      5490   398.38764     -224789.32     -152.14182      1018647.1      100.02239      100.84803      100.98551      1.0197722    
      5500   398.54407     -224789.82     -217.86018      1018717.2      100.02445      100.85255      100.98586      1.019702     
      5510   398.60195     -224790.06     -248.21297      1018710.4      100.02305      100.85447      100.98468      1.0197088    
      5520   398.56164     -224790.06     -200.30568      1018620.9      100.01787      100.85404      100.98146      1.0197985    
      5530   399.12214     -224791.24     -112.05409      1018466        100.00942      100.85216      100.97653      1.0199535    
      5540   399.97413     -224792.99      22.417538      1018279.3      99.998997      100.84985      100.97084      1.0201405    
      5550   400.11393     -224793.24      138.27317      1018105.6      99.988396      100.84843      100.96575      1.0203146    
      5560   399.4337      -224791.79      204.86085      1017984.2      99.97956       100.84869      100.96238      1.0204362    
      5570   398.30512     -224789.38      204.23876      1017936.3      99.974096      100.85071      100.96112      1.0204843    
      5580   397.77663     -224788.17      177.38001      1017959.7      99.972532      100.85379      100.96194      1.0204608    
      5590   397.9308      -224788.29      155.11014      1018043.6      99.97469       100.85725      100.96461      1.0203767    
      5600   397.55633     -224787.22      105.87939      1018177.3      99.980028      100.86095      100.96878      1.0202427    
      5610   397.49784     -224786.72      67.448339      1018345.1      99.987856      100.86456      100.9739       1.0200746    
      5620   398.73137     -224788.78      65.164457      1018533.2      99.99719       100.86765      100.98003      1.0198863    
      5630   400.98602     -224792.91      108.91382      1018739.8      100.00726      100.87046      100.98754      1.0196794    
      5640   402.68567     -224795.94      120.15885      1018976.5      100.01776      100.87358      100.99727      1.0194426    
      5650   403.06059     -224796.33      71.907977      1019245.7      100.02853      100.87703      101.00962      1.0191733    
      5660   402.50105     -224794.9      -44.785908      1019529.6      100.03938      100.88003      101.02379      1.0188895    
      5670   402.22847     -224794.15     -147.19183      1019789.1      100.04951      100.88115      101.03815      1.0186302    
      5680   402.76838     -224795.17     -170.9324       1019991.4      100.05817      100.87962      101.05098      1.0184281    
      5690   403.11458     -224795.91     -199.01328      1020127.9      100.06496      100.87579      101.06149      1.0182919    
      5700   402.88613     -224795.58     -206.43904      1020191.9      100.06924      100.87019      101.06911      1.018228     
      5710   402.44117     -224794.94     -209.09565      1020182.1      100.07088      100.86331      101.07337      1.0182378    
      5720   401.57603     -224793.53     -193.96891      1020100.3      100.07015      100.8552       101.07413      1.0183195    
      5730   400.93007     -224792.66     -156.94844      1019953.4      100.06752      100.84574      101.07171      1.0184661    
      5740   401.12169     -224793.55     -99.622487      1019757.8      100.06357      100.835        101.06709      1.0186615    
      5750   402.2405      -224796.42     -27.147728      1019534.2      100.05851      100.82329      101.06178      1.0188848    
      5760   403.30142     -224799.25      43.737534      1019308.7      100.05264      100.81116      101.05749      1.0191103    
      5770   403.06763     -224799.53      66.760893      1019104.2      100.04629      100.79944      101.05539      1.0193148    
      5780   401.26891     -224796.69      20.810992      1018926.7      100.0395       100.78865      101.05546      1.0194924    
      5790   398.704       -224792.32     -20.770972      1018761.5      100.03193      100.7788       101.05661      1.0196576    
      5800   396.85767     -224789.38      0.18323168     1018595.6      100.02345      100.76977      101.05777      1.0198237    
      5810   396.77901     -224789.96      67.238982      1018435.7      100.01448      100.76213      101.05863      1.0199839    
      5820   398.06464     -224793.24      135.55964      1018303.5      100.00555      100.75677      101.05991      1.0201163    
      5830   399.77504     -224797.32      170.52938      1018221.2      99.996997      100.75437      101.0628       1.0201987    
      5840   400.93352     -224800.26      115.04248      1018197.4      99.989208      100.75505      101.06762      1.0202226    
[...]
    112210   401.30837     -225132.44     -90.763955      1037543.1      101.4315       90.769544      112.69202      1.0011999    
    112220   399.2367      -225129.12     -150.65875      1037579.8      101.42883      90.770882      112.6973       1.0011645    
    112230   397.54215     -225126.68     -236.2461       1037560.5      101.42489      90.769883      112.70083      1.0011831    
    112240   396.97146     -225126.6      -226.88002      1037457.4      101.41902      90.765319      112.70182      1.0012825    
    112250   397.93644     -225129.67     -151.39786      1037271.9      101.41153      90.756821      112.70054      1.0014616    
    112260   399.53034     -225134.04     -21.646731      1037031.6      101.4035       90.745074      112.69794      1.0016937    
    112270   400.17119     -225136.47      86.121792      1036780.8      101.39638      90.7314        112.69558      1.0019359    
    112280   398.91267     -225135.01      150.75285      1036558.4      101.39129      90.717331      112.69453      1.002151     
    112290   397.02224     -225132.23      147.40641      1036386.4      101.38913      90.704034      112.69475      1.0023173    
    112300   395.99449     -225131.14      109.29107      1036265.5      101.39003      90.69182       112.69579      1.0024342    
    112310   395.41088     -225130.82      54.657058      1036183.2      101.39354      90.680199      112.69738      1.0025138    
    112320   394.85902     -225130.39     -10.177391      1036119.4      101.39891      90.668215      112.69937      1.0025755    
    112330   394.73143     -225130.64     -35.924507      1036053.1      101.4051       90.655206      112.70144      1.0026397    
    112340   394.85772     -225131.2      -49.005943      1035974.4      101.41131      90.641035      112.70359      1.0027159    
    112350   395.19201     -225131.98     -6.9980126      1035879.3      101.41682      90.625939      112.7059       1.0028079    
    112360   395.46835     -225132.43      73.730697      1035782.1      101.42153      90.610837      112.70887      1.0029021    
    112370   395.44056     -225132.04      93.29745       1035708.5      101.42554      90.597064      112.71354      1.0029734    
    112380   395.51679     -225131.67      85.663717      1035667.4      101.4287       90.585167      112.72035      1.0030132    
    112390   396.29149     -225132.52      109.40455      1035657.7      101.4307       90.575485      112.72913      1.0030225    
    112400   397.41964     -225133.91      171.79351      1035689.4      101.43172      90.568631      112.73998      1.0029918    
    112410   398.16099     -225134.32      136.10292      1035780.2      101.43248      90.565369      112.75307      1.0029039    
    112420   398.41953     -225133.59      53.815698      1035919.6      101.43272      90.56574       112.76752      1.0027689    
    112430   398.41614     -225132.19     -18.880381      1036079.9      101.4315       90.569232      112.78198      1.0026138    
    112440   398.7518      -225131.39     -81.6883        1036234.9      101.42812      90.57509       112.79531      1.0024638    
    112450   399.87818     -225132.19     -110.84596      1036362.2      101.42255      90.582237      112.80647      1.0023407    
    112460   401.37668     -225133.81     -90.762853      1036451.1      101.4153       90.589835      112.81474      1.0022547    
    112470   402.46148     -225134.73     -43.577619      1036508.1      101.40705      90.597885      112.8201       1.0021996    
    112480   402.92174     -225134.59      9.8166435      1036550.3      101.39816      90.607065      112.82315      1.0021588    
    112490   403.35932     -225134.67      37.621111      1036595.5      101.38878      90.618129      112.82475      1.002115     
    112500   403.92469     -225135.25      39.801455      1036654.4      101.3789       90.631242      112.82581      1.0020581    
    112510   404.10741     -225135.28     -1.6774493      1036727.2      101.36859      90.645846      112.82704      1.0019878    
    112520   403.28282     -225133.43     -58.619083      1036799.4      101.35742      90.660915      112.82857      1.001918     
    112530   401.86883     -225130.51     -119.01257      1036850.4      101.34463      90.675513      112.8302       1.0018687    
    112540   400.90962     -225128.6      -144.11137      1036859.1      101.32949      90.688865      112.83139      1.0018603    
    112550   400.97327     -225128.82     -123.36431      1036816.1      101.31237      90.700366      112.83146      1.0019019    
    112560   401.25888     -225129.52     -121.91955      1036727        101.29456      90.709846      112.82982      1.001988     
    112570   400.86826     -225128.86     -126.87887      1036592.8      101.27685      90.717313      112.82565      1.0021177    
    112580   399.72285     -225126.64     -113.34073      1036411.5      101.25976      90.722766      112.81817      1.002293     
    112590   399.16959     -225125.64     -39.601349      1036190.1      101.24372      90.726742      112.80699      1.0025072    
    112600   399.30254     -225126.01      53.379187      1035953.5      101.22915      90.730692      112.79256      1.0027361    
    112610   399.76726     -225127.02      146.79476      1035734.7      101.21694      90.735799      112.77599      1.002948     
    112620   400.28518     -225128.12      229.28065      1035567.7      101.20843      90.742619      112.75881      1.0031097    
    112630   400.48375     -225128.57      249.70165      1035481.6      101.20494      90.75125       112.7426       1.0031931    
    112640   400.15797     -225127.96      203.06356      1035484.9      101.20719      90.761227      112.72807      1.0031898    
    112650   398.97328     -225125.59      54.959432      1035558.4      101.21469      90.771593      112.71484      1.0031186    
    112660   397.16694     -225121.88     -102.92081      1035651.6      101.22588      90.780624      112.7013       1.0030284    
    112670   396.37423     -225120.14     -177.13671      1035710.1      101.23854      90.786727      112.686        1.0029718    
    112680   397.06467     -225121.34     -168.39805      1035707.3      101.25088      90.789339      112.66873      1.0029745    
    112690   398.60811     -225124.18     -155.87988      1035642.8      101.26167      90.789002      112.65011      1.003037     
    112700   400.55393     -225127.79     -58.593629      1035524.8      101.26997      90.786325      112.63138      1.0031512    
    112710   401.69358     -225129.74      73.740556      1035386.5      101.27636      90.782275      112.61425      1.0032852    
    112720   400.86938     -225127.68      124.4712       1035271.5      101.28257      90.777966      112.60018      1.0033966    
    112730   399.0397      -225123.58      158.68423      1035201.6      101.28948      90.773984      112.58985      1.0034644    
    112740   397.6964      -225120.45      199.79224      1035189.9      101.2978       90.770729      112.58336      1.0034758    
    112750   397.8069      -225120.24      221.69806      1035251.3      101.30852      90.76867       112.58067      1.0034162    
    112760   398.85494     -225121.86      140.85047      1035390.2      101.32194      90.76818       112.58148      1.0032817    
    112770   400.06157     -225123.72      53.114123      1035580.3      101.33701      90.768648      112.58483      1.0030974    
    112780   400.92672     -225124.81      1.1960749      1035791.1      101.35235      90.769333      112.58984      1.0028933    
    112790   401.03046     -225124.3      -62.426081      1036002.6      101.367        90.769756      112.59603      1.0026886    
    112800   400.61951     -225122.69     -154.66141      1036191.5      101.38016      90.769291      112.60251      1.0025058    
    112810   399.78147     -225120.14     -230.65151      1036325.5      101.39093      90.767048      112.6079       1.0023762    
    112820   399.72384     -225119.12     -243.30233      1036377.4      101.39894      90.762286      112.61055      1.002326     
    112830   400.96318     -225120.67     -167.1057       1036342.7      101.40443      90.754935      112.6098       1.0023596    
    112840   403.07532     -225123.94     -35.395455      1036248.6      101.40866      90.745621      112.60644      1.0024506    
    112850   405.16963     -225127.14      79.338573      1036140.9      101.41352      90.735716      112.60163      1.0025548    
    112860   406.36567     -225128.54      127.68427      1036059.5      101.42046      90.726574      112.59643      1.0026335    
    112870   406.53788     -225127.96      85.659743      1036020.7      101.42969      90.718959      112.59141      1.0026711    
    112880   405.82741     -225125.71      34.62084       1036012.6      101.44021      90.712891      112.58639      1.0026789    
    112890   404.9208      -225123.19      6.278503       1036018.8      101.45074      90.708153      112.58126      1.0026729    
    112900   404.39587     -225121.57      2.8876061      1036028.7      101.46047      90.704037      112.57664      1.0026634    
    112910   403.77997     -225119.88     -9.6730981      1036039.5      101.46916      90.699888      112.57332      1.0026529    
    112920   403.08152     -225118.11     -46.44292       1036046        101.47669      90.695248      112.57144      1.0026466    
    112930   402.52105     -225116.7      -89.660761      1036035.3      101.48282      90.689905      112.57011      1.0026569    
    112940   401.99458     -225115.42     -126.45836      1035991.1      101.48705      90.683823      112.56816      1.0026997    
    112950   401.30271     -225113.85     -85.372771      1035903.6      101.48905      90.677109      112.56477      1.0027844    
    112960   400.47851     -225112.04     -33.601053      1035785        101.48914      90.670389      112.56013      1.0028992    
    112970   399.63814     -225110.2       22.348869      1035654.1      101.48813      90.664087      112.55484      1.003026     
    112980   398.84417     -225108.42      61.936192      1035530.1      101.48709      90.658564      112.54937      1.0031461    
    112990   398.84281     -225108.2       101.40905      1035427.9      101.48659      90.654554      112.54381      1.0032451    
    113000   399.85459     -225110.01      142.60143      1035361.9      101.48709      90.652838      112.5382       1.0033091    
    113010   401.75599     -225113.61      182.51292      1035347.7      101.4892       90.654053      112.53281      1.0033228    
    113020   403.78722     -225117.53      172.15553      1035398.8      101.49339      90.658511      112.52818      1.0032733    
    113030   404.82817     -225119.54      99.172973      1035511.3      101.49959      90.666093      112.52412      1.0031644    
    113040   404.47421     -225118.85      43.622732      1035661        101.50704      90.676159      112.51965      1.0030193    
    113050   403.36209     -225116.78      10.570911      1035828.5      101.51493      90.687982      112.51443      1.0028571    
    113060   402.03694     -225114.42     -56.330308      1035999.3      101.52248      90.700753      112.50876      1.0026918    
    113070   401.32014     -225113.43     -94.236179      1036151.5      101.52895      90.713255      112.50262      1.0025445    
    113080   401.6826      -225114.76     -121.84866      1036270        101.53385      90.724757      112.49579      1.0024298    
    113090   402.8573      -225117.9      -132.75466      1036345.7      101.53696      90.735067      112.48778      1.0023566    
    113100   404.02356     -225121.18     -170.62745      1036372.1      101.53832      90.743812      112.47829      1.0023311    
    113110   404.58773     -225123.43     -147.19442      1036338.6      101.5377       90.750557      112.46698      1.0023635    
    113120   404.30324     -225124.15     -75.797579      1036252.5      101.53524      90.755367      112.45441      1.0024468    
    113130   403.93007     -225124.87      33.688557      1036139.6      101.53168      90.758769      112.44188      1.002556     
    113140   403.82949     -225126.27      149.51485      1036039        101.52786      90.761985      112.43121      1.0026534    
    113150   404.41368     -225129.17      269.89592      1035992.9      101.5248       90.766411      112.42411      1.002698     
    113160   404.99427     -225132.12      350.06828      1036043.8      101.52388      90.77344       112.42195      1.0026487    
    113170   404.87838     -225133.66      330.70623      1036219.9      101.52648      90.783759      112.4254       1.0024783    
    113180   403.61528     -225132.79      196.10697      1036514.7      101.53337      90.796469      112.43401      1.0021932    
    113190   401.22199     -225129.42      6.3055762      1036881.1      101.54369      90.809552      112.44612      1.0018391    
    113200   398.54032     -225125.21     -176.98166      1037251.7      101.55544      90.820908      112.45924      1.0014811    
    113210   396.35034     -225121.71     -305.10479      1037561.4      101.5664       90.828978      112.47068      1.0011821    
    113220   395.31798     -225120.32     -352.47263      1037763        101.57452      90.83285       112.47875      1.0009876    
    113230   396.14354     -225122.54     -308.86933      1037839.3      101.57867      90.832095      112.48335      1.0009141    
    113240   398.33733     -225127.41     -218.02762      1037803.9      101.57904      90.827054      112.48534      1.0009483    
    113250   400.87358     -225132.91     -108.99072      1037689.2      101.57676      90.8187        112.48578      1.0010589    
    113260   402.3336      -225136.2      -16.93317       1037533.2      101.57322      90.808121      112.4859       1.0012094    
    113270   402.30045     -225136.48      48.89898       1037369.6      101.56957      90.796182      112.48699      1.0013673    
    113280   401.09585     -225134.41      44.41789       1037220.6      101.56668      90.783576      112.48966      1.0015111    
    113290   399.87198     -225132.34      31.29863       1037087.7      101.5646       90.770737      112.49346      1.0016395    
    113300   398.75576     -225130.48      1.4773409      1036964.7      101.56297      90.757872      112.49786      1.0017583    
    113310   397.99333     -225129.3       32.187859      1036843.8      101.56119      90.745314      112.50228      1.0018751    
    113320   397.57564     -225128.75      83.62953       1036734.9      101.55919      90.733747      112.50703      1.0019803    
    113330   397.19016     -225128.17      97.187008      1036654.1      101.55714      90.723826      112.51283      1.0020584    
    113340   397.04871     -225127.98      93.700244      1036607.8      101.55534      90.715909      112.51962      1.0021032    
    113350   397.58778     -225129.08      74.690836      1036594.5      101.55405      90.710107      112.52681      1.002116     
    113360   398.03339     -225129.89      75.860775      1036609.6      101.55339      90.706277      112.53392      1.0021014    
    113370   397.92023     -225129.46      45.868933      1036651        101.55334      90.704205      112.54105      1.0020614    
    113380   398.14779     -225129.64      60.476578      1036711.3      101.55352      90.70331       112.5485       1.0020031    
    113390   398.95509     -225130.93      81.014959      1036794        101.55374      90.7034        112.55712      1.0019232    
    113400   400.20288     -225133.07      73.730996      1036906.3      101.55396      90.704469      112.56774      1.0018147    
    113410   401.70855     -225135.73      44.229218      1037045.4      101.55418      90.706349      112.58028      1.0016803    
    113420   402.9322      -225137.83      38.031952      1037202.8      101.55457      90.708829      112.59384      1.0015284    
    113430   402.93624     -225137.5      -11.00726       1037374.1      101.5556       90.71167       112.60776      1.001363     
    113440   401.94293     -225135.2      -90.660812      1037542.1      101.5569       90.714293      112.62131      1.0012008    
    113450   400.68087     -225132.4      -139.32791      1037679        101.55756      90.715889      112.63346      1.0010687    
    113460   399.50578     -225129.8      -147.18657      1037766.8      101.55675      90.716193      112.64351      1.000984     
    113470   398.68829     -225127.91     -130.3578       1037801.8      101.55384      90.715598      112.65127      1.0009503    
    113480   398.69139     -225127.66     -106.25611      1037789        101.54845      90.714454      112.65729      1.0009626    
    113490   399.15135     -225128.26     -101.55596      1037736.2      101.54058      90.712831      112.66229      1.0010135    
    113500   399.47759     -225128.52     -129.98313      1037644.6      101.5303       90.710724      112.66637      1.0011019    
    113510   399.04241     -225127.13     -162.01096      1037504.9      101.51752      90.707894      112.66891      1.0012367    
    113520   398.05835     -225124.5      -163.33694      1037305        101.50217      90.703973      112.6691       1.0014296    
    113530   397.51124     -225122.62     -97.238182      1037045.4      101.48462      90.698845      112.66676      1.0016803    
    113540   397.97148     -225122.61      21.936335      1036749.7      101.46606      90.693021      112.66247      1.001966     
    113550   399.42625     -225124.45      167.9218       1036460.5      101.44811      90.68766       112.65763      1.0022456    
    113560   401.19521     -225126.8       295.17317      1036230        101.43242      90.684371      112.65408      1.0024685    
    113570   401.6917      -225126.49      357.22085      1036103.4      101.42025      90.684757      112.65336      1.002591     
    113580   401.11328     -225123.99      341.06765      1036104.5      101.41228      90.68958       112.65634      1.00259      
    113590   400.82632     -225122.15      227.44813      1036227.2      101.40814      90.698315      112.66343      1.0024713    
    113600   401.09108     -225121.47      76.988985      1036433.2      101.40649      90.709243      112.67409      1.002272     
    113610   401.65884     -225121.47     -73.402581      1036669.2      101.40573      90.720219      112.68695      1.0020438    
    113620   402.62573     -225122.38     -152.74519      1036883        101.40449      90.729593      112.69992      1.0018372    
    113630   403.69402     -225123.64     -173.95915      1037044        101.4022       90.736751      112.71108      1.0016816    
    113640   404.41986     -225124.39     -176.88937      1037142.7      101.39918      90.741502      112.71926      1.0015863    
    113650   403.81016     -225122.59     -192.70237      1037176.7      101.39574      90.743914      112.72378      1.0015535    
    113660   402.47691     -225119.48     -190.2519       1037141.1      101.39179      90.744199      112.72395      1.0015879    
slurmstepd: error: *** JOB 13353218 ON nc11004 CANCELLED AT 2023-02-01T03:07:54 DUE TO TIME LIMIT ***
--------------------------------------------------------------------------
ORTE has lost communication with a remote daemon.

  HNP daemon   : [[9246,0],0] on node nc11004
  Remote daemon: [[9246,0],9] on node nc31036

This is usually due to either a failure of the TCP network
connection to the node, or possibly an internal failure of
the daemon itself. We cannot recover from this failure, and
therefore will terminate the job.
--------------------------------------------------------------------------
