ITEM: TIMESTEP
129000
ITEM: NUMBER OF ATOMS
16000
ITEM: BOX BOUNDS pp pp pp
3.1530761539995211e-01 1.0188469238460340e+02
5.7151061196245081e+00 9.6484893880375409e+01
-5.1144414556485245e+00 1.0731444145564801e+02
ITEM: ATOMS id type x y z
348 1 25.5777 25.9602 22.6464
5809 1 34.0194 9.84914 14.404
5848 1 33.8071 24.0822 13.8966
5822 1 33.5295 14.7158 13.7043
8 1 19.6189 7.75094 -4.04012
10 1 24.2017 7.27651 -3.0238
12 1 27.9782 8.07143 -2.4369
14 1 33.0099 8.24204 -1.80686
85 1 3.51778 10.6253 -3.01806
87 1 8.18842 10.4286 -1.982
20 1 14.6826 12.3872 -4.41385
24 1 24.1924 12.0192 -3.22398
26 1 28.606 12.6737 -2.55111
28 1 33.2481 12.1645 -1.8088
99 1 3.42595 14.8554 -3.41539
101 1 8.07111 15.3052 -2.00011
55 1 31.2634 18.9359 -4.82946
103 1 12.7094 14.5016 -1.91981
22 1 20.0876 12.139 -4.11296
40 1 28.3358 16.6569 -2.16009
113 1 3.60046 19.3624 -2.59284
115 1 8.5392 19.2532 -2.48515
34 1 15.4487 16.8797 -4.99306
117 1 12.974 19.1878 -1.93833
36 1 19.9099 16.6724 -3.99403
38 1 24.5963 17.0221 -3.16547
42 1 33.3695 16.9153 -1.62759
127 1 3.8257 24.1843 -3.294
129 1 7.64034 23.8654 -1.9217
48 1 15.2246 21.7053 -4.91259
50 1 19.2043 22.0832 -4.63118
52 1 23.4595 21.8215 -3.02811
54 1 28.0196 21.4278 -2.56256
56 1 33.0498 21.4641 -2.01455
289 1 19.4767 5.74038 18.3271
71 1 3.23388 5.82152 -2.58104
62 1 14.5158 26.3624 -4.54756
27 1 30.6543 10.6611 -5.10662
64 1 19.4828 26.5037 -3.91037
66 1 23.8933 26.1287 -2.94949
68 1 28.8248 25.9689 -2.57161
70 1 33.1879 26.2002 -2.48445
10878 1 1.02488 7.92722 -0.23905
72 1 5.7635 7.82991 0.582185
74 1 9.98323 8.19471 1.46507
395 1 5.97086 19.4717 22.8865
294 1 31.0238 8.23288 22.9093
10891 1 1.14571 12.3853 -0.116813
86 1 5.70034 13.4023 0.24853
88 1 10.2669 12.6736 0.497953
89 1 12.6769 10.0184 -1.89068
90 1 15.0062 12.4408 1.51903
91 1 17.1404 10.3553 -0.847434
93 1 21.4195 10.1327 -0.401235
95 1 25.7259 10.186 0.135672
97 1 30.6632 9.85698 1.19759
10904 1 1.47079 16.7007 -0.466188
102 1 10.0488 17.174 0.831761
105 1 17.4448 14.7997 -1.44123
107 1 21.849 14.844 -0.734659
109 1 25.7474 14.7842 0.376274
111 1 31.0208 14.6222 1.14394
100 1 5.3823 17.6729 0.838699
104 1 14.4343 17.5395 1.8897
119 1 16.9644 19.3348 -1.4645
121 1 21.5741 19.2308 -0.441967
123 1 26.1358 20.016 0.265945
125 1 30.1774 19.3208 1.07377
10917 1 1.08995 22.0994 -1.03772
114 1 5.58065 21.6938 0.44474
116 1 10.1244 21.544 1.26527
131 1 12.3083 23.7292 -2.1315
133 1 16.9403 23.9739 -1.10601
135 1 20.7766 23.7935 -0.328489
137 1 26.2381 23.6875 0.365607
139 1 30.5027 23.8799 1.12289
10930 1 1.0718 26.0302 0.0487954
128 1 4.68184 26.1799 0.688789
130 1 10.296 26.1269 0.992692
346 1 21.1182 25.9548 21.5295
5861 1 32.5095 5.73619 19.8011
344 1 16.5715 26.3645 21.6859
350 1 30.7787 25.9482 22.6936
334 1 26.0504 21.5309 21.958
76 1 14.6792 8.38735 2.00595
342 1 12.6807 26.9732 21.3647
78 1 18.8718 7.56668 2.22037
80 1 23.1597 7.64706 3.05871
82 1 27.9502 7.97987 3.46829
84 1 32.4915 8.21798 4.39877
155 1 3.2238 10.3815 2.70455
157 1 7.42509 9.35306 4.42383
159 1 11.9211 10.5772 4.276
161 1 16.8765 10.3201 4.72477
92 1 19.5258 12.1469 2.68798
94 1 23.8013 12.2444 2.76915
96 1 28.1775 12.0472 3.58397
98 1 32.8218 12.5352 4.24905
169 1 2.70758 14.8773 3.6297
171 1 8.09973 14.7369 4.12898
173 1 12.3013 14.8984 4.1292
175 1 16.3568 14.8053 4.76972
177 1 20.8713 14.904 5.94156
110 1 27.7069 16.3265 3.81412
112 1 32.5078 17.1073 4.47045
183 1 2.71314 18.8894 3.31266
185 1 7.38351 19.2668 4.18862
187 1 12.0571 19.1538 4.75792
106 1 18.892 17.2624 2.02135
189 1 16.6554 19.3859 4.97383
108 1 23.3214 16.8829 2.42617
197 1 2.8949 22.9711 3.16243
199 1 7.32587 24.1921 4.1403
118 1 14.4849 21.6145 1.72728
201 1 11.7948 23.6804 4.95978
120 1 18.6434 21.5055 2.46648
203 1 16.3964 23.7714 5.66016
122 1 23.4254 21.512 3.21514
124 1 28.1086 21.3914 4.14959
126 1 33.0052 21.2327 4.27364
132 1 14.5154 26.2712 2.1822
369 1 10.5585 10.0507 22.8662
134 1 19.182 26.1206 2.30201
287 1 14.7724 5.86646 17.6578
340 1 8.29351 26.2344 20.149
136 1 23.1807 26.0468 3.19335
138 1 27.9397 25.9224 3.7629
140 1 32.5944 26.0402 4.30876
142 1 5.15091 7.72477 7.17313
144 1 9.88633 7.59231 7.36957
146 1 13.8604 8.10173 7.58933
338 1 4.04642 26.1623 19.3875
148 1 18.5869 8.10245 8.59486
151 1 25.2897 5.77782 6.0417
156 1 5.05343 12.4932 6.67278
158 1 9.68228 13.1825 7.39663
160 1 14.3778 12.9052 7.51072
162 1 18.323 12.6392 8.93862
163 1 21.2356 10.3213 6.25478
164 1 22.7716 12.3357 8.97114
165 1 25.5213 10.5269 6.50044
167 1 29.7449 10.1804 7.48736
170 1 4.57339 17.0748 7.20752
172 1 9.29663 17.0484 7.48344
176 1 19.4731 17.0786 8.94116
178 1 23.4193 16.9834 9.07722
179 1 25.0521 14.6389 6.31942
181 1 29.5875 14.4913 6.79673
174 1 14.1691 17.0121 7.93681
191 1 21.3078 19.3479 5.6038
193 1 25.6331 19.2246 6.80894
195 1 29.5416 19.2461 7.04262
10995 1 0.46908 26.0277 6.01092
184 1 4.50703 21.7651 6.65937
186 1 9.2425 21.6374 7.51794
188 1 13.9215 21.5337 8.11806
190 1 18.2375 20.5806 8.92307
205 1 21.0788 23.586 6.54686
207 1 25.5513 23.7062 6.52098
209 1 30.1387 23.6929 7.328
69 1 30.7191 23.4572 -4.82657
198 1 5.15521 26.4375 7.14862
200 1 9.47916 25.7716 7.81281
202 1 14.1867 26.2348 7.90617
204 1 18.6532 26.2221 8.83898
5913 1 33.2799 24.0077 19.8097
10956 1 0.614259 12.0342 6.26693
150 1 23.0696 7.80097 9.53575
152 1 27.688 7.91313 10.0115
154 1 32.375 8.35011 11.0169
225 1 2.63655 9.78233 9.47117
227 1 7.14423 10.3364 9.91451
229 1 11.1062 10.0106 10.4386
231 1 15.576 10.557 11.2886
233 1 20.1481 10.1521 12.3233
235 1 24.7951 10.3923 12.8872
166 1 27.958 11.9466 10.3875
168 1 31.918 12.6255 10.6627
239 1 2.56924 14.0296 8.97064
241 1 7.05147 14.846 10.1678
243 1 11.4915 14.5777 10.8009
245 1 16.0528 15.1416 11.6024
247 1 20.5784 14.933 12.2006
249 1 25.3212 13.978 12.4309
180 1 27.1485 16.5801 10.2725
253 1 2.40689 19.1207 9.6786
255 1 7.05519 19.2925 10.6121
257 1 11.2039 19.1994 11.1397
259 1 16.0114 18.9428 11.7273
261 1 20.8158 18.7369 12.5498
263 1 24.6438 19.505 12.7029
182 1 31.8534 16.7313 10.2006
267 1 2.42468 23.6374 9.68707
269 1 6.42299 23.9973 10.3504
271 1 11.4039 24.0955 10.9789
273 1 15.7722 23.4835 11.5609
192 1 22.7352 21.6586 9.45543
275 1 19.6903 23.269 11.5398
194 1 27.6786 22.0693 10.1547
196 1 32.376 21.8424 11.0245
330 1 17.1699 22.0394 21.6393
320 1 26.7768 16.7162 21.9528
326 1 8.51735 21.4675 19.8524
409 1 5.45741 23.4568 22.9903
206 1 22.5971 26.2013 9.17788
208 1 27.3507 26.1123 10.1214
210 1 32.0214 26.3212 10.5489
5900 1 33.5917 19.6053 19.951
212 1 4.38725 8.35084 12.9717
214 1 8.9899 8.34273 13.4127
216 1 12.847 7.62868 13.61
218 1 17.7093 7.73647 14.4245
220 1 22.1666 7.52798 15.8904
41 1 31.2873 15.3052 -4.77404
295 1 1.70829 10.1668 16.1972
226 1 4.19871 12.3061 12.7982
228 1 8.88983 12.7946 13.4689
230 1 13.4707 12.3028 13.9343
232 1 17.6306 12.2738 14.8349
234 1 22.0753 12.811 15.6788
237 1 29.3899 9.89454 13.7307
153 1 29.7865 5.8288 7.31102
244 1 13.3475 16.6003 14.7713
246 1 17.8669 16.7319 15.4843
248 1 22.1407 17.0943 15.7626
250 1 26.9029 17.1969 16.1072
251 1 29.2598 14.6616 13.5383
6 1 14.8211 7.81876 -5.04491
240 1 4.35161 17.0629 12.5344
242 1 8.86484 17.3195 13.6292
265 1 28.9176 19.5324 12.6938
5835 1 34.1266 19.3649 13.715
337 1 1.90497 23.6643 16.0115
254 1 4.20947 21.7023 12.4435
256 1 9.16794 21.5653 13.3293
258 1 13.6281 21.4603 14.5133
260 1 17.7689 21.2266 14.9405
262 1 21.6685 22.6429 14.7941
277 1 25.217 23.9638 12.6918
279 1 29.2071 23.9912 13.7115
264 1 26.6695 21.9511 16.1218
268 1 4.51329 26.0109 13.0268
270 1 8.79151 26.1622 13.5024
272 1 13.4182 26.4228 14.3403
274 1 17.8426 25.3997 15.319
276 1 21.8822 26.1147 15.8915
328 1 13.1102 21.2855 21.0687
278 1 26.3961 26.4777 16.1378
282 1 4.1632 7.86049 19.5535
381 1 6.20758 14.6799 22.4316
407 1 1.4968 23.4627 21.9714
222 1 26.1957 8.2329 15.6286
293 1 28.3105 5.85563 19.2129
224 1 31.3327 7.95357 16.5015
296 1 4.19888 12.5832 18.7123
297 1 6.34278 10.1712 16.3367
299 1 11.0068 10.3141 16.8212
301 1 15.1955 9.72029 17.5652
303 1 19.5819 9.94398 18.3861
305 1 23.984 10.2397 19.1782
236 1 27.3498 12.6432 16.1908
307 1 28.9421 9.60839 19.2215
238 1 31.3387 12.4332 17.1949
309 1 1.52084 14.834 15.4038
311 1 6.17073 14.8927 16.2701
313 1 10.5741 14.8122 17.1105
315 1 15.2203 13.8044 18.1622
317 1 19.7322 14.6653 18.3057
319 1 24.4408 14.8491 19.0349
321 1 29.0679 14.8058 19.5686
323 1 1.87864 19.4511 15.7445
310 1 3.85102 16.7275 18.903
325 1 6.81163 19.052 16.1084
327 1 11.0226 19.0755 17.2667
329 1 15.5713 19.4942 18.389
331 1 20.1903 19.6497 18.3657
333 1 24.695 19.1566 18.6725
335 1 29.4268 19.5073 19.382
252 1 31.5949 16.9049 16.8345
324 1 4.05493 20.9783 19.3759
341 1 10.3498 23.8825 17.0198
343 1 14.6107 23.8133 18.2263
345 1 19.3474 23.6059 18.8358
347 1 24.2007 23.5548 19.0109
266 1 31.4997 21.4889 16.129
339 1 6.09482 23.575 16.1065
349 1 29.0596 23.9736 19.4452
280 1 30.9973 26.0469 16.8951
332 1 21.2864 21.5363 21.6623
1691 1 24.2617 28.368 19.0977
284 1 8.68085 8.04824 19.9461
286 1 13.0094 8.13573 20.4403
288 1 16.8242 8.28098 20.8056
290 1 21.4042 7.47992 21.967
292 1 26.192 8.135 22.7323
5796 1 34.0967 5.83656 14.1018
1475 1 12.7242 28.3523 -1.50045
365 1 1.51273 9.92324 22.2732
367 1 5.72141 10.0718 22.1901
298 1 8.66202 12.69 19.5997
300 1 12.7714 12.0761 20.5734
302 1 17.3148 12.748 21.44
304 1 21.9612 12.342 21.9644
306 1 26.0315 11.9066 22.1921
5874 1 33.4954 9.86639 20.3963
322 1 31.2464 16.9654 22.9748
379 1 1.67559 14.4433 22.2099
75 1 12.1435 5.82006 -1.71384
318 1 21.8653 16.9953 21.9672
5887 1 33.5045 15.075 20.4914
393 1 0.95224 19.0862 21.8406
1479 1 21.5205 28.1924 -0.788803
312 1 8.50761 17.3342 19.9934
314 1 13.139 16.6122 20.6335
316 1 17.7001 17.4094 21.5557
147 1 16.3268 5.82549 5.26926
1617 1 15.5946 28.2618 11.8657
1547 1 16.6315 28.3416 5.24373
149 1 20.5039 5.82189 5.95159
1621 1 24.0041 28.2129 12.3394
1553 1 30.0142 28.3681 7.41429
1549 1 20.7376 28.3332 6.29258
1471 1 3.50073 28.271 -3.0136
1483 1 30.7149 28.2535 0.730426
1473 1 8.10722 27.8966 -2.02689
1481 1 26.1025 28.3385 0.271368
1615 1 11.6866 28.2032 10.8861
1545 1 12.0765 28.2967 4.37865
1611 1 2.64733 28.3728 9.52647
1681 1 1.62769 28.3309 16.0065
79 1 21.2849 5.76962 -0.257779
141 1 2.88837 5.84207 3.31768
73 1 7.94021 5.75032 -2.13605
397 1 10.6166 19.2187 22.9841
352 1 3.46259 7.8937 25.3078
354 1 7.57947 7.69581 25.9391
635 1 8.15673 5.7663 48.3776
674 1 0.808164 21.4214 50.2378
366 1 3.46257 12.6471 25.4298
368 1 7.84177 12.4076 25.8421
336 1 30.6414 22.0565 22.9925
371 1 14.6918 9.89936 24.2417
370 1 12.6112 12.1915 26.5856
373 1 19.4159 9.80597 24.5817
375 1 23.6273 10.3546 24.9689
377 1 28.0308 10.433 25.5627
5939 1 33.1168 10.1125 26.6868
633 1 3.98769 6.22162 47.6471
385 1 14.8353 14.5506 23.5953
387 1 18.9851 14.1588 24.6856
389 1 24.3722 14.934 25.2259
391 1 28.1172 14.8108 25.2374
5952 1 32.847 14.4675 26.7091
380 1 3.68429 16.7784 25.8188
433 1 26.9456 5.83401 32.2955
382 1 8.15245 17.0497 26.1238
399 1 15.1032 19.516 24.0449
384 1 12.5311 16.9717 26.8662
401 1 19.0422 18.8961 25.0332
403 1 23.5053 19.4858 25.1295
405 1 28.2687 19.3959 25.5423
394 1 3.68416 21.7441 25.7824
396 1 8.25103 21.7823 26.1287
493 1 4.36938 6.02494 35.3655
413 1 14.7693 24.2788 24.5217
398 1 12.0347 21.4842 26.9019
415 1 18.7189 24.1238 24.4604
417 1 23.4775 23.7577 25.1048
419 1 28.202 23.7831 25.626
5978 1 32.9132 24.1252 26.4823
408 1 2.92534 26.6329 25.4996
410 1 7.48652 25.3428 26.8851
383 1 9.95104 14.6503 23.5336
1823 1 5.31743 28.1778 28.7126
363 1 28.2969 5.84841 25.8622
308 1 31.2939 12.8649 23.377
700 1 32.7783 25.8179 48.8598
411 1 10.0727 24.0028 23.6366
356 1 12.1811 7.69728 26.6373
358 1 16.1627 7.74982 27.2402
360 1 20.7733 7.92896 27.9027
362 1 25.3535 8.20833 28.5499
364 1 29.7977 7.95732 29.3315
435 1 0.893783 9.81646 28.4864
437 1 5.24983 10.5167 28.8175
439 1 9.31199 9.81855 29.5403
372 1 16.9791 12.6419 27.3838
374 1 21.5342 12.1434 27.8802
376 1 25.3151 12.9231 28.3599
378 1 29.9793 12.4529 29.0297
449 1 0.658237 14.577 28.5009
451 1 5.26716 14.7646 28.9248
453 1 9.72759 14.3719 29.5098
455 1 14.2919 14.3232 30.3139
386 1 17.0323 16.6267 27.3847
390 1 26.1846 17.471 28.5322
463 1 0.551675 19.3426 28.3472
465 1 5.68077 18.6743 28.8001
467 1 9.59967 19.0496 30.0095
388 1 21.4202 16.8663 28.3805
392 1 30.5184 17.2822 28.8058
5965 1 32.8578 19.9876 26.6319
713 1 30.818 5.99168 50.7797
479 1 4.80961 23.8992 29.1288
481 1 9.44897 23.7071 30.1433
400 1 16.8782 21.6264 27.8354
402 1 20.8342 21.5634 28.3018
404 1 25.5661 21.6273 28.7079
406 1 30.1674 21.6648 29.1824
412 1 12.1472 25.947 27.9182
414 1 16.6073 26.1399 27.4113
416 1 20.9177 26.1671 28.2048
418 1 25.3726 26.2321 28.4094
420 1 30.4241 26.356 28.6371
422 1 2.76343 7.74125 31.3954
424 1 7.21281 7.61918 32.1806
426 1 11.9616 7.63207 32.8633
428 1 16.4674 8.23287 33.5128
646 1 1.72432 13.1394 49.872
698 1 26.5433 26.2007 50.0344
565 1 9.02837 5.7969 42.1749
1903 1 27.1491 28.3457 38.3545
6004 1 32.368 10.216 32.4654
436 1 2.44567 12.1637 32.2664
438 1 6.99104 11.6349 32.0117
440 1 11.0937 12.1789 32.9566
441 1 14.1554 10.27 29.9389
443 1 18.596 9.73904 30.6702
445 1 23.3026 9.76122 31.4188
447 1 27.8305 10.1854 32.1944
450 1 2.4465 16.7527 32.0245
454 1 11.4753 17.0094 33.1217
457 1 18.8445 14.3397 31.0802
459 1 23.3278 14.4185 31.6909
461 1 28.0905 14.8909 32.0705
6017 1 32.6655 14.8373 32.0806
452 1 6.16404 17.0047 32.4416
469 1 14.3933 19.2377 30.2688
471 1 18.8317 19.3902 31.4314
456 1 16.297 16.9464 33.338
473 1 23.2561 19.0667 31.166
475 1 27.8866 18.9262 32.1729
6030 1 32.5762 19.8115 32.1558
464 1 3.00238 21.0767 31.8319
466 1 6.87293 21.6022 32.6319
483 1 14.0235 23.7675 30.5932
468 1 11.5453 21.3965 33.2532
485 1 18.7425 23.9384 30.8801
487 1 23.5464 23.8364 31.4717
489 1 28.2781 24.1366 32.2915
6043 1 32.4631 23.6206 32.8338
478 1 3.09758 26.6502 31.8138
480 1 6.67422 26.2216 32.6846
482 1 12.0252 25.9615 33.2668
2037 1 12.0378 28.23 48.9268
662 1 5.59729 17.6495 50.7976
1897 1 13.713 28.3723 36.4182
1893 1 4.47231 27.9251 35.7351
503 1 27.307 5.74761 37.7089
430 1 21.2538 7.7351 34.0105
432 1 24.9703 7.98382 35.3484
434 1 29.5909 7.64891 34.9378
507 1 4.56253 10.0036 35.2236
509 1 8.70918 10.1284 35.5697
511 1 13.0048 9.96397 35.9926
442 1 16.1979 12.4254 33.7474
444 1 21.6712 12.4422 34.3705
446 1 25.7369 12.067 34.9446
448 1 29.9923 12.3661 35.7079
521 1 4.20939 14.4979 34.8398
523 1 8.76241 14.7148 36.0591
525 1 13.5932 14.582 36.3282
527 1 18.1415 14.3155 37.0067
529 1 22.7617 14.8022 38.3143
460 1 24.9179 16.5924 34.5208
535 1 4.18993 19.0341 35.5523
537 1 8.86811 19.351 35.2694
539 1 13.421 19.1211 35.9132
541 1 18.0129 19.8175 36.9162
458 1 20.7367 16.9165 34.5133
462 1 29.8093 16.9532 35.1246
6095 1 33.6792 18.8588 36.4687
549 1 4.30747 23.4893 35.9
551 1 8.81591 24 36.1962
553 1 13.4217 23.8408 36.9326
470 1 16.4438 21.6336 33.8196
472 1 20.8994 21.631 34.3181
474 1 25.5966 21.0417 34.5293
476 1 29.844 21.4952 35.4951
648 1 5.49064 13.2104 50.9823
547 1 0.528976 24.1259 34.7572
484 1 15.9632 26.3287 34.0219
486 1 20.5171 25.9009 33.8683
488 1 25.11 26.188 35.08
490 1 29.8863 26.1632 35.4945
492 1 1.61561 8.07401 38.0094
494 1 6.57628 8.08692 38.9069
496 1 11.208 7.52102 39.5836
498 1 15.8261 7.54869 40.0171
500 1 20.4258 7.70725 40.7762
2043 1 29.2078 28.2611 47.2857
688 1 0.650338 25.7924 50.6034
504 1 30.7723 8.21033 40.1045
506 1 1.46726 12.4944 37.873
508 1 6.30199 12.6418 38.7082
510 1 11.0834 12.0273 39.1429
513 1 18.7604 10.0164 37.0174
512 1 15.7439 12.0909 39.3024
514 1 20.078 12.1435 40.9085
515 1 22.9266 10.672 38.6076
517 1 27.5574 10.5773 38.0643
6069 1 33.3288 9.47097 37.2202
526 1 15.6896 16.4868 39.1303
528 1 19.6034 17.0056 40.5188
531 1 26.7206 15.2015 38.1097
518 1 31.0205 12.7819 39.8711
6082 1 33.5047 14.1663 36.2789
520 1 1.91312 17.0932 37.9336
522 1 6.37736 16.8434 38.3022
524 1 11.0161 16.7824 38.6992
543 1 22.6745 19.3154 37.7612
545 1 27.1368 19.0578 37.7992
532 1 30.8202 16.8136 39.5052
534 1 1.61388 21.8385 38.046
536 1 6.72911 21.0849 39.022
538 1 11.3218 21.4027 39.18
555 1 18.1263 24.0116 37.4411
540 1 15.5156 21.0102 39.7837
557 1 22.6259 23.5102 37.3023
542 1 19.7824 21.7997 40.6812
544 1 24.2789 21.6296 41.5318
559 1 27.4901 23.8135 38.3292
6108 1 33.7755 23.7661 36.6535
546 1 30.7824 21.3644 39.263
548 1 2.41376 25.9863 38.0991
550 1 6.27517 26.3175 38.973
552 1 10.8617 26.6627 39.5286
554 1 15.3452 26.0119 40.2275
7291 1 32.1627 28.3091 32.1885
560 1 31.0054 26.0212 39.7042
1763 1 27.8572 27.9174 25.5905
686 1 32.6033 21.9089 48.3913
502 1 25.1697 7.88442 40.3381
684 1 26.1772 21.8904 49.8723
576 1 1.72393 12.9453 44.5711
577 1 3.93975 10.3373 41.2629
579 1 8.268 10.487 42.3248
581 1 13.0861 9.80717 42.4032
583 1 17.7443 9.76629 42.9058
585 1 21.9649 9.91967 43.7447
516 1 24.7269 12.644 41.3957
587 1 28.1708 10.1816 42.7316
591 1 3.12494 14.9438 41.3103
593 1 8.93652 15.1023 41.6819
595 1 13.2151 14.9073 42.0959
597 1 17.8251 14.3721 42.7912
599 1 21.8027 15.3694 43.9992
601 1 27.9708 14.8408 42.5305
605 1 4.04062 19.4139 41.4149
607 1 8.46722 19.2543 41.9159
609 1 12.3411 19.26 42.7213
611 1 17.0488 19.1365 42.728
613 1 21.958 19.2139 43.7548
530 1 24.3931 17.3305 41.565
615 1 27.9306 19.0817 42.2068
604 1 1.0227 21.8903 44.5831
619 1 4.0701 23.5172 41.7748
621 1 8.66352 23.9314 42.1069
623 1 12.8774 23.8194 42.5867
625 1 16.8843 23.9604 43.334
627 1 22.1911 23.9884 44.0419
629 1 28.3151 23.5159 42.4003
1759 1 18.6441 28.239 24.6698
697 1 22.8887 23.9946 48.1682
1973 1 28.1098 28.2242 42.7832
556 1 19.5593 26.1746 40.8145
558 1 24.3733 25.9276 41.1443
695 1 17.2468 24.6694 49.3143
1963 1 3.89959 28.3288 41.5409
562 1 2.07979 8.13317 44.0586
564 1 5.92244 8.09596 44.8965
566 1 10.6278 8.13015 45.1056
568 1 15.2576 8.0656 45.8938
570 1 19.8222 7.68413 46.2835
572 1 25.8106 7.9043 45.0021
574 1 31.9496 8.12126 44.5543
647 1 3.55912 10.3402 47.5518
578 1 5.97389 13.0019 44.5479
580 1 10.652 12.6868 44.6472
582 1 15.1534 12.2937 46.0591
584 1 19.2327 12.2384 46.7445
586 1 25.2426 12.6194 45.6122
657 1 29.002 10.3824 46.8593
588 1 31.7615 12.2199 44.3725
592 1 6.22239 17.2314 44.7825
594 1 10.1886 16.8949 45.0972
596 1 14.7839 17.0065 46.102
598 1 19.1492 16.7256 46.5919
600 1 25.6211 17.3356 46.0698
671 1 28.5445 14.4442 47.0322
590 1 1.31377 17.6628 43.8838
675 1 3.13096 19.2979 48.0243
685 1 28.7693 19.097 47.3919
602 1 30.8825 16.8284 44.1763
606 1 5.80129 21.7481 44.7599
608 1 10.3368 21.2468 45.7575
610 1 14.7632 21.2216 45.9963
612 1 19.3771 21.6127 46.317
614 1 25.6102 21.9408 45.3377
699 1 29.1249 23.4565 47.1417
616 1 31.3487 21.5561 44.2659
618 1 1.23574 26.6644 43.788
620 1 5.73003 25.4876 44.641
622 1 9.81186 25.7344 45.6253
624 1 14.95 25.7839 46.2017
626 1 19.4637 26.6332 46.6988
628 1 25.9122 26.3898 45.6667
630 1 31.4564 26.462 44.4213
632 1 1.03911 8.72512 50.6512
1753 1 5.72614 28.3383 23.0587
634 1 5.58085 8.88867 50.6002
1755 1 9.59885 28.0121 24.1597
642 1 26.8367 7.76265 50.0001
644 1 32.941 8.15345 48.4085
649 1 8.2498 11.0902 47.657
563 1 4.2811 5.76361 41.4414
651 1 12.7597 10.2206 48.5668
653 1 17.3507 10.1766 49.3332
2035 1 7.40929 27.6964 48.1967
655 1 23.149 10.1394 48.2069
656 1 25.756 12.7972 50.2841
658 1 32.589 12.8137 48.4267
660 1 1.13056 16.9903 51.0423
661 1 3.28985 15.2373 47.2459
663 1 7.73255 15.4493 48.6581
665 1 11.5864 14.5529 48.1554
667 1 17.1617 14.5945 49.2702
691 1 7.75512 23.8198 48.3855
669 1 22.7273 14.8046 48.6803
670 1 26.3503 17.3763 50.0543
672 1 32.6282 16.7643 48.9919
693 1 13.0885 23.6947 48.5702
677 1 7.76353 19.1541 47.671
679 1 13.2735 19.0794 48.9495
681 1 16.8731 19.2794 49.4902
683 1 22.4839 19.4408 48.1647
689 1 2.99881 23.9579 47.173
1829 1 18.2152 28.1053 31.443
1901 1 22.4609 27.9073 37.6721
676 1 5.30671 21.4501 50.8757
682 1 20.4041 21.3596 50.659
1821 1 0.774519 28.3368 28.2732
1825 1 9.7558 28.357 29.6885
7356 1 33.8738 28.1076 36.8176
2033 1 3.18012 28.2335 47.4377
636 1 10.0171 7.68016 51.0934
727 1 30.2047 10.5406 50.9902
696 1 20.6476 26.5126 51.072
853 1 32.3451 6.05016 60.695
638 1 13.8353 8.09506 51.9058
913 1 2.84212 5.72665 70.8141
712 1 27.8704 8.15726 54.4236
714 1 33.1383 8.2035 53.0137
717 1 3.4424 10.324 53.2478
1091 1 33.7216 14.6239 75.8304
719 1 7.63143 9.62291 54.5998
2113 1 30.2598 28.1131 51.8773
652 1 14.5766 12.3853 52.2254
723 1 17.8428 10.0706 54.264
725 1 23.99 10.3371 52.8886
851 1 26.5876 5.9058 61.6892
726 1 27.7243 12.2983 54.4687
728 1 33.3206 12.6771 53.1098
733 1 8.03569 14.41 54.4994
664 1 9.71827 16.7493 51.7018
737 1 18.0918 14.9733 53.9354
739 1 24.0576 15.0045 53.0723
740 1 28.1097 17.1818 54.2021
2249 1 20.2195 28.3465 62.9347
742 1 33.6531 17.4448 53.3163
745 1 2.65708 19.356 53.8069
747 1 7.38585 19.2435 54.1869
666 1 15.1588 17.0492 52.6979
751 1 18.2391 19.3856 53.9641
753 1 23.9872 19.507 53.3077
755 1 30.0938 19.8267 51.5356
759 1 2.86327 23.7387 54.291
761 1 7.3114 23.7062 54.5332
678 1 9.84806 21.5941 51.2568
680 1 14.5524 21.5567 51.8121
765 1 18.1489 23.7666 53.8187
767 1 23.7314 24.0833 52.7349
769 1 29.9248 23.5308 51.8061
756 1 33.5247 22.0771 53.7119
926 1 0.660577 12.5837 73.7769
1049 1 33.8768 23.6678 69.1608
692 1 9.99115 26.1224 51.6021
694 1 14.0087 25.6449 52.4359
917 1 15.0654 5.84507 68.2853
940 1 0.913897 17.0718 73.5868
849 1 20.3339 6.03739 62.4141
768 1 27.7795 26.0727 54.472
1061 1 29.7274 5.80157 75.083
654 1 20.195 12.2704 51.9904
704 1 5.17297 8.11858 57.2034
706 1 9.81593 8.10763 57.5836
708 1 15.2827 7.94419 56.193
710 1 21.3565 7.74192 55.4718
1116 1 26.7455 26.1919 78.1126
711 1 24.2377 6.37009 52.9414
718 1 5.06023 12.2823 57.3643
721 1 11.5143 10.3918 54.7254
722 1 15.6647 12.5424 57.0868
724 1 21.7913 12.3967 55.5509
795 1 24.9742 10.6092 56.9963
797 1 30.7769 10.412 55.6895
731 1 3.58369 14.7593 53.9112
735 1 12.4275 14.659 55.7614
734 1 8.91564 17.0859 57.5817
736 1 15.2307 16.8473 57.3891
738 1 21.9921 17.1234 55.5465
809 1 25.8621 15.2075 57.5427
811 1 30.991 15.0346 56.4808
732 1 5.02277 16.9925 57.0499
749 1 12.0968 18.9625 54.6943
750 1 15.5012 21.5394 57.0253
823 1 25.1861 19.5659 57.8054
825 1 31.879 19.4781 55.9311
2313 1 2.62371 28.0859 70.5781
746 1 4.84982 21.401 57.5797
748 1 9.44161 21.4948 57.5899
763 1 11.7743 23.4689 55.0154
752 1 21.7088 21.8424 55.7545
837 1 24.7933 24.3921 57.6331
754 1 27.1385 21.4292 54.9989
839 1 31.4975 23.7171 56.3102
760 1 4.7228 26.2069 57.612
762 1 9.40019 26.1492 57.7662
764 1 15.0611 26.3842 57.0111
766 1 21.1855 26.7247 55.6626
775 1 7.28472 5.8229 60.5841
1042 1 13.7157 26.343 75.5688
791 1 12.6741 10.2723 59.0856
778 1 16.0561 8.84147 60.7135
780 1 22.908 7.8381 59.8224
703 1 3.1251 5.77285 53.8851
782 1 28.7183 8.39867 58.8251
787 1 2.48974 10.2383 60.273
789 1 6.92681 10.6731 60.715
720 1 9.78014 12.5408 57.619
792 1 16.2338 12.5965 61.7894
793 1 19.1106 10.3136 58.8267
794 1 23.0459 12.5759 60.112
865 1 25.908 10.343 61.6347
796 1 28.5991 13.0019 58.8344
867 1 31.6537 10.682 60.3078
801 1 2.57851 14.265 59.947
803 1 6.96388 14.4657 60.66
805 1 13.3148 14.9926 59.9089
806 1 17.086 17.3963 61.4656
807 1 19.2258 14.8759 58.3867
808 1 22.9868 17.1425 60.0799
879 1 26.5264 15.0731 62.1261
810 1 29.4738 17.4679 59.212
881 1 32.4888 15.2218 60.1095
815 1 2.04015 18.8229 60.2039
817 1 6.92327 18.9536 60.7028
819 1 12.9379 19.1295 59.3612
821 1 19.5332 19.5946 58.7398
893 1 26.0513 19.6242 61.721
895 1 32.4164 19.286 60.1531
829 1 2.18549 23.3465 60.3597
831 1 6.88835 23.7291 61.0166
833 1 12.7044 23.8675 59.7149
835 1 18.2683 24.0047 58.2825
820 1 16.6158 21.7853 61.2196
822 1 22.7098 21.814 59.9955
907 1 26.1627 24.3003 61.7923
824 1 28.721 22.1768 58.728
909 1 32.3562 24.666 60.5263
781 1 26.0683 5.98402 57.0692
730 1 0.627098 17.0505 56.6601
2177 1 13.0119 27.9839 59.9762
834 1 16.6802 26.06 61.4221
951 1 32.6571 14.9855 64.8115
836 1 22.5139 26.5541 60.2995
783 1 30.53 5.97178 56.3772
838 1 28.8325 26.6969 58.9281
2107 1 11.3084 28.1083 55.0503
774 1 4.02838 8.10183 63.2194
776 1 10.7073 8.43069 62.2946
954 1 0.380857 21.1781 73.6388
848 1 17.9111 7.88201 65.7992
850 1 23.8176 8.13823 64.6258
852 1 29.2681 7.93659 63.7361
788 1 4.23151 12.5262 64.0453
790 1 10.475 12.1824 62.5081
861 1 14.4313 10.2579 64.4436
863 1 20.048 10.3603 62.6814
864 1 23.558 12.7419 64.7022
866 1 29.9284 12.626 63.7264
802 1 4.33148 16.5127 63.6307
804 1 10.5501 16.7572 62.4174
875 1 13.5316 14.8714 64.3293
877 1 19.6478 14.9099 62.966
878 1 23.1854 17.2429 64.4939
880 1 29.5029 17.0089 63.0013
741 1 30.1406 15.0292 51.4519
887 1 7.70593 18.971 65.7434
889 1 13.8529 19.4755 64.0147
891 1 20.113 19.0599 63.2471
1033 1 32.7196 19.5851 65.3585
816 1 4.14187 21.1078 63.8064
818 1 9.99548 21.1889 62.2674
903 1 14.014 23.8199 64.0171
905 1 20.1242 23.824 63.2661
892 1 23.7988 21.728 64.931
894 1 29.8482 21.6765 63.1198
964 1 33.0879 23.5893 64.5146
830 1 4.09588 25.9395 63.6036
832 1 10.0284 25.8142 62.521
702 1 0.565253 7.88281 56.5382
1021 1 34.1466 14.9446 68.9427
906 1 23.5595 25.5949 64.5326
908 1 29.9196 26.1529 63.458
844 1 5.32073 7.54199 67.5948
846 1 11.149 7.83593 66.6337
983 1 3.79989 6.13587 75.3087
1040 1 7.63486 26.0051 77.1209
922 1 30.5349 7.96471 67.9672
857 1 1.80764 10.0937 66.106
858 1 4.92695 12.2208 67.9036
859 1 8.08298 9.92524 64.9225
860 1 11.1279 12.3246 67.0455
931 1 14.7799 9.66413 68.7664
862 1 17.3854 12.5448 66.1342
933 1 20.8934 10.1496 66.8761
935 1 27.0538 10.2017 66.1434
937 1 33.2945 10.6078 64.7051
936 1 30.6577 12.7098 67.5716
871 1 1.43925 14.8398 66.5204
872 1 5.19925 16.8861 68.311
873 1 7.91295 14.1502 65.5799
947 1 20.4237 14.873 67.3493
948 1 24.3543 16.9635 68.7513
949 1 27.0658 15.1238 66.4436
950 1 30.0757 17.3729 68.3557
885 1 1.86449 19.4387 66.3451
874 1 11.2176 17.102 66.9159
959 1 15.1111 19.2288 68.6675
876 1 17.3578 16.7806 66.0691
961 1 21.0766 19.3725 67.7979
963 1 27.1969 19.0937 65.9724
899 1 2.05832 23.5665 66.1584
901 1 7.94398 23.492 65.0089
886 1 5.47707 21.9858 68.1386
888 1 11.3907 21.6626 66.5351
973 1 15.1515 23.7989 68.6221
890 1 17.7311 21.5235 65.7599
975 1 21.5167 24.1313 67.4911
977 1 27.245 23.7961 66.3235
1035 1 30.4985 21.9744 67.9083
900 1 5.48895 25.9044 67.908
902 1 11.7442 26.0629 67.2757
904 1 18.1114 25.7363 65.8777
2105 1 7.26549 28.1743 54.7459
716 1 0.469641 11.8897 56.288
978 1 30.4835 25.7195 67.8933
773 1 2.58841 5.88406 60.4999
916 1 12.6056 7.54647 71.0275
918 1 18.6687 7.97011 70.32
1055 1 11.5084 5.832 78.5165
920 1 24.8703 7.90236 68.4617
1038 1 0.70268 26.333 78.1284
927 1 2.68513 10.2519 70.6477
928 1 6.52657 12.4451 71.8295
929 1 8.88498 10.2614 69.5016
930 1 12.3542 12.6423 71.4001
932 1 18.4384 12.4958 70.0361
1003 1 22.0581 10.2207 71.4574
934 1 24.2775 12.7959 68.8545
1005 1 27.5998 10.6691 70.6097
941 1 3.0002 15.0763 71.0972
943 1 8.51895 14.8957 69.6787
945 1 14.7227 14.5325 68.8079
946 1 18.3869 17.0398 71.0517
1017 1 22.2631 14.6749 71.6786
1019 1 28.1564 14.6415 70.5421
955 1 3.02757 19.1353 71.0014
957 1 9.19414 19.1885 69.6848
944 1 11.8758 16.9454 71.3887
1031 1 22.2262 19.1137 72.3748
1020 1 27.8233 19.1844 70.5266
668 1 20.4872 16.8986 51.5237
969 1 2.65249 24.0432 70.8039
971 1 9.21983 23.9432 69.7485
958 1 12.2024 21.0453 71.0006
960 1 18.8421 21.6203 70.6043
1045 1 21.9915 24.1894 72.1027
962 1 24.3915 22.3778 69.6198
1047 1 28.4875 23.6511 70.9398
1034 1 31.9252 21.6984 73.1888
6537 1 34.16 19.5791 69.8291
972 1 12.3563 26.8538 71.078
974 1 18.6525 27.0274 70.1259
784 1 34.0107 7.90914 57.4413
976 1 24.4193 26.5328 68.9502
690 1 4.55409 25.8956 51.148
1048 1 31.8992 26.0027 72.3702
914 1 6.75941 7.79832 71.8749
1118 1 31.5005 26.3488 78.5446
1100 1 20.3344 21.4356 79.0851
988 1 19.5921 8.26842 74.6423
990 1 25.642 7.40531 73.1677
2323 1 33.1152 28.1151 64.7973
992 1 32.4035 7.96613 72.2638
997 1 4.29582 10.4483 75.2302
999 1 9.61222 9.7563 74.0243
1001 1 16.0356 10.8782 73.2366
1002 1 19.4958 12.1319 74.655
1004 1 25.4724 12.0187 73.4727
1075 1 29.0574 10.5833 74.9868
1077 1 33.3866 10.2402 75.5914
1006 1 31.5275 12.0205 71.9161
1011 1 4.2654 14.7874 75.2401
1013 1 8.97043 14.3688 74.3138
1015 1 15.6549 15.5988 73.2561
1018 1 25.3624 16.8804 73.3927
1089 1 28.9773 14.4177 75.0957
777 1 13.572 5.85755 59.5489
1025 1 3.87721 19.0859 74.8879
942 1 7.32874 17.128 72.4546
1027 1 10.1204 19.7423 74.3387
1029 1 16.1925 19.99 72.6192
1016 1 19.8864 16.9639 75.0628
1103 1 29.8065 19.0183 75.0481
1105 1 33.6454 19.4633 75.7721
1022 1 31.6193 16.8618 72.3806
1039 1 3.72322 23.9553 75.3009
956 1 6.47126 21.7609 72.3303
1041 1 10.2151 24.0288 74.2573
1028 1 13.5189 21.7528 75.7429
1043 1 15.8728 24.096 72.4446
1030 1 19.5306 21.6197 75.0779
1032 1 25.6066 21.5415 73.5297
1117 1 28.922 23.7805 75.8089
1119 1 33.657 24.2331 75.8268
1115 1 22.9478 24.0838 76.4079
970 1 6.30771 26.4138 72.6016
1104 1 32.0455 21.7508 78.936
1044 1 19.6418 26.2878 75.353
1046 1 25.6993 26.1889 73.41
982 1 1.59757 8.05793 77.9588
984 1 7.12556 8.12045 76.4545
986 1 13.2475 7.33135 75.6159
1102 1 26.7187 21.4871 77.9968
640 1 20.7243 7.81568 51.3839
1113 1 16.8176 24.2713 77.7838
1060 1 26.6237 7.55444 77.7314
1062 1 31.3362 8.40395 78.4029
996 1 1.45595 12.5756 78.0223
998 1 7.75543 12.6629 77.6163
1069 1 10.8078 10.381 78.0123
1000 1 13.4133 12.454 75.9139
1071 1 16.3719 10.1848 77.6082
2243 1 1.32016 28.1435 66.4777
1073 1 23.1303 9.48454 75.8545
1074 1 26.3214 12.0153 78.0044
1076 1 30.9672 13.1375 78.4994
1010 1 1.34222 17.0402 78.2574
1083 1 10.7698 14.7387 78.6447
1085 1 17.1243 14.9318 77.5066
1086 1 20.2669 16.8492 78.9476
1087 1 23.2952 14.126 76.2593
1088 1 27 16.6492 78.1177
923 1 33.0679 5.97027 64.5786
1012 1 6.64857 17.3835 77.1382
1097 1 10.9533 19.3283 77.8314
1014 1 12.8265 16.8881 75.6728
1099 1 16.7441 19.4706 76.9932
1101 1 23.3065 19.4274 76.8909
1090 1 30.9906 17.0051 78.1962
1024 1 1.40213 21.6322 77.8564
1026 1 7.43253 21.5903 76.4489
1111 1 11.041 23.896 78.1505
2245 1 7.75248 28.0896 65.6328
991 1 28.4805 6.06532 70.7048
2103 1 2.34986 28.1787 54.3288
2461 1 29.3448 28.375 74.9305
2175 1 7.02531 28.3781 60.9273
2391 1 28.5766 28.2996 70.3372
2183 1 31.7738 28.0639 56.5051
993 1 34.0588 6.10012 69.3046
1057 1 16.9896 5.77794 77.3793
1058 1 20.5383 8.01956 79.2