ITEM: TIMESTEP
123000
ITEM: NUMBER OF ATOMS
16000
ITEM: BOX BOUNDS pp pp pp
3.5088344307074237e-01 1.0184911655693236e+02
5.7174682025383774e+00 9.6482531797461093e+01
-5.2147861486298339e+00 1.0741478614862999e+02
ITEM: ATOMS id type x y z
10891 1 1.38321 12.2175 -0.258849
6 1 15.1613 8.33225 -4.83779
5822 1 34.4942 14.4264 13.9418
8 1 20.0474 7.9336 -4.22412
10 1 24.5073 7.82447 -3.82281
12 1 28.2549 7.75541 -2.66138
14 1 32.9204 7.94667 -1.55846
85 1 3.11755 10.5363 -3.23219
87 1 7.65105 10.5818 -2.53899
83 1 30.7829 5.50751 0.649974
20 1 15.1122 12.9144 -5.23723
22 1 19.9047 12.6657 -4.61243
24 1 24.5662 12.405 -4.50637
26 1 28.9046 12.6147 -2.50883
28 1 33.3139 12.6369 -1.54964
99 1 3.46499 14.6563 -3.59846
101 1 8.26478 14.9203 -2.64603
34 1 15.8242 17.4376 -4.87479
38 1 24.2599 17.1105 -3.67432
42 1 32.8978 17.6482 -2.18601
113 1 3.62666 19.1503 -2.9832
115 1 8.46793 19.042 -2.29486
117 1 12.8309 19.5721 -1.97973
36 1 20.1061 17.4512 -4.23077
40 1 28.3266 17.3713 -3.24522
127 1 3.57932 23.7509 -2.94096
129 1 8.11427 24.0233 -2.22509
131 1 12.8821 24.2981 -1.75957
48 1 15.0392 22.4482 -4.68691
50 1 19.6972 22.2019 -3.75273
52 1 24.3459 21.5817 -3.15103
54 1 28.7746 21.8699 -2.76171
56 1 32.629 22.5156 -2.26347
393 1 0.522927 19.1453 22.1082
10969 1 0.571243 16.8001 6.50082
62 1 15.3949 26.5055 -3.91526
81 1 26.1431 6.30864 0.0612845
64 1 19.6614 26.8802 -4.12664
66 1 24.3361 26.2702 -3.29897
68 1 28.7143 26.4502 -2.44154
70 1 32.4449 26.6631 -1.71028
10878 1 0.384193 8.19704 -0.508998
72 1 5.7881 8.21339 0.0735069
74 1 9.8888 8.56417 1.15526
10956 1 0.680894 12.295 6.18083
78 1 19.057 8.19678 1.74668
10943 1 1.06501 7.71455 5.94518
86 1 5.81641 12.2739 0.604114
88 1 9.97092 12.4408 1.77441
89 1 12.3245 10.6902 -1.78513
90 1 14.7301 12.6804 1.34337
91 1 17.0767 10.106 -1.85354
93 1 21.7475 10.4829 -1.17362
95 1 26.3269 10.7555 -0.423781
97 1 30.6248 10.3692 0.509372
100 1 5.36622 17.0116 -0.0967665
102 1 9.99355 16.9963 0.910899
103 1 12.8614 15.087 -2.37574
105 1 16.7915 14.9034 -2.06461
107 1 21.0516 15.3517 -0.982018
109 1 25.6152 14.8002 -0.189669
111 1 30.4088 14.8338 0.519782
10904 1 1.45833 17.022 -0.740723
119 1 17.1051 19.8278 -1.29998
121 1 21.2495 19.3311 -0.637774
123 1 25.8422 19.6112 0.0796617
125 1 30.1774 19.6038 0.582331
322 1 31.236 16.8551 22.9075
114 1 5.65306 21.7236 0.511572
116 1 10.1188 21.7521 1.05376
118 1 14.6875 21.8991 2.03592
133 1 17.3518 24.1339 -0.39031
135 1 22.0708 23.6976 -0.0770205
137 1 26.1908 24.0987 0.772276
139 1 30.4923 23.5445 1.23305
10930 1 0.698654 26.0578 -0.766384
128 1 5.99183 25.6389 0.619585
130 1 10.3586 26.4826 1.21543
350 1 31.3795 26.1788 22.5152
1553 1 30.2721 28.2029 6.97809
7096 1 33.9084 28.1082 14.3349
76 1 14.5312 8.24966 1.59964
80 1 23.7786 8.44536 2.61249
82 1 27.6965 8.07893 3.31834
84 1 31.5868 7.63752 4.30327
155 1 3.01634 9.70377 3.19268
157 1 7.73764 10.0783 5.02565
159 1 12.5114 10.4636 4.86705
92 1 18.7237 12.8328 1.73374
161 1 16.598 10.1927 5.2875
94 1 23.2966 13.164 2.18683
96 1 27.8075 12.4003 3.38458
98 1 32.3318 12.4502 4.11286
169 1 3.34931 14.9841 3.47245
171 1 7.30603 15.0631 2.91963
173 1 12.2614 15.2947 4.48127
104 1 14.6911 17.0328 1.38061
175 1 16.1637 14.6838 5.26301
106 1 18.4177 17.2638 1.99498
108 1 23.0665 17.3186 2.93311
110 1 27.6938 16.9665 3.2647
183 1 3.02896 19.2241 3.20882
185 1 7.58001 20.143 3.27761
187 1 12.7 19.3529 3.99236
189 1 16.8791 19.2433 5.03116
112 1 32.3867 17.0591 3.6699
197 1 3.02305 24.6595 3.04488
199 1 7.30484 24.1579 3.74812
201 1 12.0219 24.1285 4.55873
120 1 19.3254 21.5558 3.06159
203 1 16.5211 24.1023 5.79376
122 1 23.7396 21.9555 3.15376
124 1 27.8401 21.7413 3.53192
126 1 32.7034 21.704 4.11256
10917 1 1.11774 21.9185 -0.319673
10982 1 0.613255 21.4349 5.82039
132 1 14.6983 26.2392 2.67062
46 1 10.4192 22.0085 -5.27034
153 1 29.3851 5.74432 7.78587
134 1 19.0204 26.4301 2.55778
136 1 23.507 26.7281 3.24734
138 1 28.0005 26.2702 4.43039
140 1 32.737 25.8317 4.37047
142 1 4.79939 8.20307 6.50262
144 1 9.16996 7.28941 7.3947
146 1 13.9992 8.04414 8.45835
348 1 26.5067 26.2347 22.5682
353 1 5.75908 5.82501 22.667
156 1 4.3918 12.7983 6.60304
158 1 9.10399 13.257 6.67285
160 1 13.8201 12.7161 8.00697
162 1 18.4321 12.2028 8.55606
163 1 21.0073 10.4185 5.0993
165 1 25.2483 10.2813 6.63958
167 1 29.7185 9.97666 6.92174
170 1 5.31663 17.4476 6.5094
174 1 13.5808 17.2004 7.8789
176 1 19.1351 16.6507 8.41689
177 1 20.6841 14.2168 5.05412
179 1 25.9204 14.7486 5.6763
181 1 29.7755 14.7379 6.81405
172 1 9.12163 17.1848 6.6355
191 1 20.8057 18.8835 5.63134
193 1 25.2785 19.1371 6.55516
195 1 29.8658 19.2239 6.89133
395 1 5.09359 19.0306 22.3867
184 1 4.87367 22.0605 6.39051
186 1 9.52805 22.0475 6.61527
188 1 14.11 21.7098 7.79678
190 1 19.0797 21.4591 8.81175
205 1 21.3488 24.3333 6.07259
207 1 25.1687 23.6759 7.15764
209 1 30.2871 23.5961 7.16144
60 1 10.8005 26.5278 -4.48291
198 1 4.90755 26.767 6.92607
200 1 9.27839 26.5698 7.26444
202 1 14.352 26.4906 7.67843
204 1 18.7162 26.1109 8.57267
326 1 8.05264 21.6647 20.3565
206 1 22.8892 25.9462 9.37084
215 1 10.6942 5.61169 10.6222
145 1 11.9165 6.09575 4.69764
1479 1 21.8284 28.1493 -0.838464
346 1 21.7308 25.6374 21.4862
344 1 17.0902 26.1857 20.7828
148 1 18.8684 7.3902 8.28145
71 1 3.59026 5.77087 -3.13229
150 1 23.2917 8.05501 9.40868
152 1 27.0067 7.84463 9.77033
154 1 31.7448 7.89322 10.4158
225 1 2.88735 10.0975 9.22136
227 1 6.90656 10.4685 9.6602
229 1 10.6608 10.5299 10.4453
231 1 15.9792 9.96172 11.0751
233 1 20.1579 10.5465 11.742
164 1 23.0055 12.6202 8.60946
166 1 27.5175 12.5363 9.52182
168 1 32.1841 12.4736 10.1703
239 1 2.86477 14.7933 9.59492
241 1 7.31902 14.9366 9.85634
243 1 11.073 15.0087 10.6819
245 1 15.7559 14.4879 11.1261
247 1 20.5681 14.4401 12.1317
178 1 23.2731 16.5598 8.66853
180 1 26.9565 17.2576 9.30144
253 1 2.72852 19.5575 9.66294
255 1 7.12906 19.6834 9.98813
257 1 11.0979 19.5482 10.2117
259 1 15.4327 18.7322 11.7738
261 1 20.9126 19.0715 11.9392
182 1 31.5064 16.6246 9.69439
1615 1 11.2651 28.144 11.096
267 1 2.05907 23.4406 9.80009
269 1 6.66783 24.2037 10.2992
254 1 4.35072 21.3935 12.6923
271 1 11.2545 24.2152 10.5285
273 1 15.799 23.7666 11.1682
275 1 20.6056 23.8899 12.2009
192 1 22.9389 21.1038 9.24917
277 1 25.431 24.2037 12.899
194 1 27.5371 21.111 10.2794
196 1 31.6646 21.3497 10.0468
147 1 16.5651 6.15425 5.18103
324 1 3.89291 21.3771 19.0713
5913 1 33.4147 23.046 20.5686
407 1 1.44262 23.7191 21.9559
5900 1 33.1786 18.7016 19.9539
208 1 27.5541 26.6138 10.1554
210 1 32.2427 26.2025 10.5213
212 1 4.06736 8.24653 12.431
214 1 8.44871 7.91895 13.6535
216 1 13.0159 7.79492 13.7336
218 1 18.5321 7.97826 14.2037
220 1 22.7037 7.67283 15.4735
295 1 1.33968 10.0676 15.8405
226 1 4.46272 12.4373 13.0922
228 1 9.16243 12.6459 14.0752
230 1 13.1368 12.1094 13.9732
232 1 18.2193 12.1852 14.6459
234 1 22.9213 12.0446 15.0992
235 1 24.748 9.78284 12.4781
237 1 29.3841 10.5854 13.3042
5809 1 33.8739 9.57073 13.9254
240 1 4.73061 17.1788 13.0142
244 1 13.4341 16.2389 14.0327
246 1 17.9514 16.7691 14.7654
248 1 21.9248 16.9759 15.415
249 1 24.6713 14.6704 12.6442
251 1 29.3901 15.3711 12.7406
323 1 0.921698 18.8356 16.3884
242 1 8.86575 17.2438 13.6514
263 1 25.4015 19.4541 13.197
265 1 30.1025 18.9886 13.729
250 1 26.6542 16.7811 16.2762
1617 1 16.0681 28.1373 11.4714
337 1 1.71974 23.5537 15.9077
256 1 8.96588 21.5178 13.6413
258 1 13.6716 21.7046 13.5242
260 1 17.8371 21.7379 14.4623
262 1 22.4755 21.8241 15.5529
279 1 29.2675 23.8077 13.4798
264 1 27.207 21.366 16.265
5848 1 33.8918 23.4119 13.7954
268 1 4.23437 26.1418 13.0382
270 1 8.55202 26.0829 13.9659
272 1 13.0037 25.9663 13.776
274 1 17.3954 26.457 14.7501
276 1 22.0661 25.7818 15.7986
278 1 26.796 26.2432 16.1403
334 1 26.3603 21.6763 21.7941
282 1 3.55012 7.73172 19.7946
1623 1 29.541 28.4274 12.8934
335 1 28.8273 18.2947 19.3633
342 1 12.3139 25.9694 20.4462
222 1 26.5575 8.2426 16.1919
224 1 31.4157 7.89163 16.4884
296 1 4.0597 12.5943 19.3889
297 1 5.9924 10.1072 16.2762
299 1 10.5524 10.1797 16.9717
301 1 15.141 9.84077 17.0718
303 1 20.1886 10.0389 18.3043
305 1 23.8915 10.4896 19.1346
236 1 26.3019 12.2677 16.2402
307 1 28.5494 9.76694 19.5835
238 1 31.8991 11.5544 16.6727
309 1 2.27869 14.5072 15.7103
311 1 5.9685 14.7046 16.484
313 1 10.6686 14.6002 16.9428
315 1 15.1895 14.0479 17.6773
317 1 19.7647 14.7406 18.1294
319 1 24.2241 14.9673 19.3979
321 1 28.8321 14.495 19.5611
252 1 31.3625 16.0484 16.3775
325 1 5.97727 19.1635 16.4156
327 1 11.5105 19.2858 16.8001
329 1 15.3026 18.5043 16.4997
331 1 19.7318 19.3537 17.9216
333 1 24.6702 19.2178 18.4424
339 1 6.11302 23.8025 16.5226
341 1 10.6143 23.4297 16.8518
343 1 14.9703 23.7118 17.5824
345 1 19.4506 23.1923 19.0419
347 1 24.2905 23.7306 19.2467
349 1 28.6607 23.9533 19.7454
266 1 31.8704 20.8106 16.7583
1681 1 1.45783 28.2791 16.0189
338 1 3.77586 26.4523 19.398
367 1 5.80612 10.4583 22.9463
1685 1 10.9916 28.101 17.3414
213 1 6.65704 5.94618 10.1449
332 1 21.7599 21.2527 21.5739
280 1 31.0995 25.4995 16.6509
316 1 17.2375 16.688 20.6196
409 1 5.88312 23.8987 23.1165
284 1 8.20715 8.23771 19.5172
286 1 12.6029 7.64866 19.8655
288 1 16.8836 7.95465 20.9135
290 1 21.6104 7.31951 21.8453
292 1 26.2395 8.31723 22.3579
320 1 26.5188 17.3786 22.5479
365 1 1.65606 10.059 22.4436
328 1 12.1013 21.741 20.8329
298 1 8.41863 12.3604 19.7519
330 1 16.5868 21.3625 21.0174
300 1 13.052 12.3161 20.5085
302 1 17.0284 12.1463 20.8778
304 1 22.105 12.5908 21.8046
306 1 26.8647 12.6471 22.3611
5874 1 33.3795 10.0905 20.0027
310 1 2.74987 16.7643 18.9908
379 1 1.46565 14.4995 22.3
318 1 21.7097 17.2834 21.612
5887 1 33.6961 14.0772 20.0905
340 1 7.81371 26.1427 19.4004
312 1 8.49505 17.1852 19.7509
314 1 12.535 16.9947 19.9388
1483 1 30.8244 28.2939 1.60836
1551 1 25.8489 28.494 6.85877
1471 1 3.74186 28.0664 -2.72313
7161 1 32.7441 28.3209 19.0501
223 1 28.9731 5.88227 13.0562
283 1 6.0025 5.80415 16.8274
75 1 13.1597 6.25076 -2.35943
287 1 15.6724 5.75233 17.1351
73 1 8.01166 5.99954 -2.23192
293 1 28.574 5.73905 19.8189
336 1 30.6247 21.2691 22.5085
352 1 2.71888 8.34282 25.5493
354 1 7.4698 8.48114 25.8889
366 1 2.6679 12.3415 25.8059
368 1 7.89761 13.0372 26.309
371 1 14.587 10.0035 23.3042
373 1 19.308 10.3053 24.2679
375 1 23.94 10.2205 24.8466
377 1 28.6073 10.533 25.6794
411 1 9.81373 23.6485 23.4403
380 1 3.04933 17.2271 25.4684
383 1 10.399 14.9824 23.2433
385 1 15.0057 15.2384 23.6765
387 1 18.9977 14.6759 24.5373
389 1 23.9364 14.9596 25.2675
391 1 28.3698 15.0397 25.9957
5952 1 32.9478 14.597 26.5729
547 1 0.375845 23.7365 35.1165
382 1 7.55337 16.9179 26.6045
397 1 9.61487 19.144 23.0452
399 1 14.5205 19.0345 23.7277
401 1 19.1832 18.823 24.5847
403 1 23.8299 19.1384 25.0606
405 1 28.4454 19.5037 25.4717
394 1 3.01035 21.467 25.4146
396 1 7.48166 21.5598 26.51
355 1 10.0187 5.69794 23.1062
413 1 14.5431 23.5039 23.8747
415 1 18.5349 23.3928 23.5681
417 1 24.2785 23.7905 24.8472
419 1 28.3422 24.1007 25.4066
408 1 2.10916 25.3451 25.6052
410 1 7.18764 25.8919 26.419
1757 1 14.2151 28.0017 24.1963
1759 1 18.8872 27.9848 24.357
449 1 0.702421 15.173 28.8813
1763 1 28.7447 28.1164 25.2947
2039 1 16.9862 28.4336 49.5318
1753 1 5.89076 28.4333 22.7493
648 1 5.71559 12.9927 50.7442
435 1 0.471022 10.3398 29.0177
634 1 5.1497 8.22233 50.7663
356 1 12.2041 7.68506 26.3797
358 1 16.8559 8.09854 27.0031
360 1 21.4851 8.18837 28.0058
362 1 25.7398 7.80932 28.4695
364 1 30.368 7.88257 28.9626
700 1 33.07 25.7287 48.9117
437 1 5.39327 10.2287 28.9757
439 1 9.69279 9.80584 29.7442
370 1 12.4826 12.2101 26.915
372 1 16.8072 12.1171 26.6956
374 1 21.1097 12.1761 27.9865
376 1 25.8654 12.5217 28.5998
378 1 30.1169 12.6077 29.5777
5939 1 32.6996 10.0394 26.5965
369 1 10.0479 10.1853 23.5453
451 1 5.30836 14.8543 28.8074
453 1 9.89551 14.3729 29.4769
384 1 11.8531 16.5283 26.9305
390 1 25.5013 17.0677 29.0601
392 1 29.9759 17.1107 29.2392
381 1 6.05063 14.5475 23.0865
465 1 4.45427 19.5297 29.0609
467 1 9.13246 19.2572 29.5843
386 1 15.9491 16.7817 27.5264
388 1 20.6766 16.9033 28.2771
5965 1 32.9675 19.4224 26.2154
477 1 0.640624 23.7869 28.84
479 1 5.2838 23.6799 30.012
481 1 9.48542 23.6668 29.7186
398 1 11.7722 20.8948 26.7587
400 1 16.4999 20.9847 27.5944
402 1 21.1308 21.4385 27.6045
404 1 25.6583 21.876 28.9332
406 1 30.2003 21.8803 28.9446
5978 1 33.0182 24.2629 25.9046
635 1 7.78268 5.58545 47.9642
412 1 11.9241 26.142 26.6619
414 1 16.5081 25.5194 27.5326
416 1 21.1255 25.8075 27.7213
418 1 25.7738 26.3693 28.2467
420 1 30.4868 26.228 29.1154
422 1 2.39164 7.87421 32.1608
424 1 6.92934 7.66196 32.5446
426 1 11.5663 8.03373 32.9289
677 1 7.65034 19.114 47.9576
1901 1 22.4819 28.2861 36.9401
436 1 2.7 12.4459 32.0811
438 1 6.85857 12.4015 32.5966
440 1 11.3984 12.1728 33.0368
441 1 14.5724 9.44804 30.0027
443 1 18.4974 10.3731 30.774
445 1 23.193 10.0344 31.5047
447 1 27.493 9.90046 32.1289
6004 1 32.075 9.78726 32.8266
450 1 2.48935 16.9434 31.9493
452 1 7.20706 17.238 32.1803
455 1 14.5094 14.1662 30.0936
457 1 18.9165 14.948 31.185
459 1 22.8159 14.659 31.5777
461 1 27.4121 14.4986 32.6868
6017 1 31.9298 14.5471 32.7388
469 1 13.9215 18.9392 29.8103
454 1 11.5088 16.8109 32.1012
471 1 18.3147 19.374 30.6554
473 1 23.0778 19.4872 31.0247
475 1 27.4475 19.0265 31.7532
6030 1 31.9334 19.1311 32.601
464 1 2.38992 20.8013 32.171
466 1 7.04524 21.1369 32.4769
468 1 11.688 21.5296 33.1229
483 1 13.4855 23.3793 30.2695
485 1 18.6819 23.7919 30.8334
487 1 23.1088 24.174 30.634
489 1 27.6248 23.7343 31.8187
6043 1 32.206 23.5128 32.3581
478 1 3.13952 25.2806 32.6568
480 1 7.23613 26.3016 32.5447
482 1 11.7682 25.902 32.8749
1831 1 22.7178 28.1427 31.479
6147 1 34.1953 15.0453 41.7975
675 1 3.59381 19.5306 47.5442
6160 1 34.0865 19.73 42.1947
7291 1 32.1903 27.8607 33.0604
2033 1 3.61786 27.9917 47.7049
1755 1 10.2989 28.2168 23.6563
428 1 16.2561 7.24463 33.3629
430 1 20.2616 7.89639 34.1308
432 1 24.9199 7.55928 35.3196
434 1 29.483 8.0997 35.6172
507 1 4.3724 10.4297 34.7375
509 1 9.48339 10.2332 35.6109
511 1 13.9566 10.0514 36.1282
442 1 16.1112 12.1558 33.7562
444 1 19.9945 12.5662 34.1314
446 1 24.6559 12.6813 34.6835
448 1 29.3288 12.8233 35.4344
6069 1 33.1576 10.4337 37.2315
521 1 5.24721 14.7299 35.3966
523 1 9.28514 14.5593 35.7588
525 1 13.2583 14.9834 36.1256
458 1 20.6916 17.2124 33.818
460 1 25.237 17.228 34.7078
462 1 29.7967 17.4845 35.3009
535 1 4.49076 19.1738 35.1354
537 1 9.32495 18.9023 35.8949
539 1 14.0321 19.0562 36.3104
456 1 15.8593 16.718 33.6327
6095 1 33.0261 19.8877 36.8155
698 1 26.7181 26.2299 50.921
549 1 5.01814 23.967 35.7018
551 1 9.28811 23.6011 35.6396
553 1 14.2263 23.4756 36.2719
470 1 16.328 21.4624 33.1244
472 1 20.7281 21.0016 33.6476
474 1 24.7647 21.6642 34.8793
476 1 29.1502 21.5415 35.4078
6108 1 32.8106 23.9778 36.9949
672 1 32.7928 17.4926 49.1792
2043 1 29.2309 28.1855 47.4499
6056 1 32.6184 6.39017 37.1839
484 1 15.461 25.7452 32.2997
486 1 20.9267 25.173 33.9179
488 1 25.0691 25.6249 34.3941
490 1 29.3664 26.264 35.455
492 1 2.00643 7.87363 37.6416
494 1 6.70489 8.16235 38.1984
496 1 11.1671 8.29886 39.5086
498 1 15.5464 7.76991 39.3505
683 1 23.2815 19.2616 48.7595
500 1 19.8862 7.40536 40.7766
573 1 28.1566 5.65424 43.1671
504 1 30.323 8.49802 40.2497
670 1 26.6984 17.3726 50.0305
506 1 2.07323 11.8774 37.549
508 1 6.60387 12.344 38.9159
510 1 11.3581 12.3935 39.0626
512 1 15.1408 12.5614 39.3895
513 1 18.3681 9.94574 37.6589
515 1 22.098 10.3372 37.699
514 1 19.6945 11.9995 40.5051
516 1 24.4112 12.5684 41.1175
517 1 26.7642 10.5615 38.4103
518 1 30.5431 12.8466 39.9913
520 1 1.59628 16.767 37.8573
524 1 10.6917 16.4326 39.5857
526 1 15.2321 17.3796 39.321
527 1 18.0124 14.5629 37.1265
529 1 22.2172 14.8096 37.554
531 1 27.4174 14.6593 37.9937
6082 1 33.2867 15.2496 37.3248
532 1 30.6304 17.4722 39.9991
522 1 6.16304 16.798 38.5185
541 1 18.0091 18.6164 36.1613
543 1 22.3773 19.0117 37.8507
545 1 26.7886 19.5107 38.2918
534 1 2.1004 21.493 38.1143
536 1 6.78135 21.5601 38.4598
538 1 11.4684 21.4306 39.2619
555 1 18.0849 23.0076 36.9432
540 1 16.0304 21.8113 40.5866
557 1 22.8034 23.7606 37.8632
559 1 27.4377 24.0191 38.2149
546 1 30.3468 22.1816 39.4657
548 1 2.61609 26.534 37.742
550 1 6.83184 26.0575 39.0612
552 1 11.6412 26.2382 38.8164
554 1 15.6458 26.1744 39.2837
682 1 20.7255 21.4406 50.8733
681 1 17.1746 18.7965 49.223
688 1 0.843923 26.0395 50.581
560 1 30.4834 26.8522 40.0013
1895 1 9.11894 28.3565 35.9021
686 1 32.7888 21.1506 48.9519
669 1 23.3983 14.6507 47.7244
502 1 24.2157 8.30558 40.8964
684 1 26.3153 21.6531 50.8053
574 1 32.0105 8.0683 44.4558
577 1 3.39791 10.2044 40.6988
576 1 1.35495 12.7096 44.115
579 1 8.6079 9.63514 42.1509
581 1 13.1371 10.3088 42.7027
583 1 17.6951 10.1185 42.8002
585 1 22.2112 10.0858 43.8921
587 1 28.1687 9.96766 42.7117
591 1 3.87369 14.7301 40.8176
593 1 8.36846 14.3204 41.9817
595 1 13.5021 14.3293 42.6657
597 1 17.3291 14.8751 42.8151
599 1 22.0766 14.4349 43.6354
530 1 24.6322 16.7092 40.5221
601 1 28.0038 15.2355 43.1465
605 1 3.84468 19.3757 41.8997
607 1 8.56366 18.9068 41.8445
609 1 13.1138 19.7115 42.8607
611 1 17.7202 19.3199 43.2611
528 1 19.7877 16.6131 40.0382
615 1 28.5686 19.4262 42.6423
626 1 19.5287 26.5698 46.6168
619 1 3.84811 24.032 41.5354
621 1 8.84846 23.45 41.5245
623 1 13.2372 24.3955 41.8503
625 1 17.8229 24.5295 43.1513
542 1 20.8314 22.2716 40.7453
627 1 22.3423 23.7411 44.322
544 1 24.6529 21.0561 41.4993
629 1 28.2039 23.9307 42.7041
618 1 1.51679 25.4015 44.3324
679 1 12.0012 19.3122 49.3644
691 1 8.06518 23.6772 48.2561
1967 1 13.5253 28.0919 42.7946
493 1 4.70117 5.88755 35.2446
556 1 20.0782 26.5784 40.6729
558 1 24.752 25.7642 41.5983
294 1 30.7012 7.93754 23.358
562 1 1.51114 8.02616 44.5727
564 1 5.59505 8.18737 45.1162
566 1 10.2657 8.04921 45.2114
568 1 14.9649 8.01894 45.974
570 1 19.4943 8.04382 46.8492
572 1 25.5398 7.74851 46.2092
647 1 3.59019 10.5096 47.7395
578 1 6.06047 12.4032 44.5286
580 1 10.497 12.1457 44.9936
582 1 15.3939 12.5893 46.2203
584 1 19.2234 12.8964 46.5285
586 1 25.9366 12.579 45.3899
657 1 29.2836 10.3974 47.4916
588 1 32.0897 12.1577 44.2374
661 1 3.56858 14.5598 47.4859
590 1 1.63837 16.5032 44.6489
592 1 5.96017 16.4969 44.6561
594 1 10.6948 16.8648 45.4134
596 1 14.7985 17.0687 46.1604
600 1 25.4086 17.2368 45.337
671 1 29.366 15.0309 47.0785
602 1 32.0911 16.8625 44.4877
610 1 14.7243 21.3345 46.1522
598 1 19.8049 16.9883 46.6955
613 1 22.1785 19.5249 44.2527
685 1 29.1713 19.2191 46.691
604 1 1.39647 21.3476 44.2305
689 1 3.81408 23.3939 47.7837
606 1 6.76288 21.9174 44.71
608 1 10.9211 21.3413 45.2466
612 1 19.3331 21.81 46.5786
614 1 25.9575 21.4999 45.9123
699 1 29.0757 23.5812 47.7649
616 1 31.6392 21.5789 44.5668
697 1 23.1249 23.8424 48.4099
620 1 6.25455 26.0467 44.5023
622 1 10.6495 25.3355 45.6414
624 1 15.3906 26.0878 45.7664
361 1 23.7302 5.46773 25.547
628 1 25.8726 25.9872 46.1758
674 1 1.46125 21.5163 50.431
630 1 31.8696 26.1516 44.4058
632 1 0.960472 8.32202 50.4648
667 1 16.6595 14.3098 49.3357
695 1 17.1274 23.5845 49.4107
571 1 22.6305 6.35595 43.9883
665 1 12.3884 14.7458 48.3607
642 1 26.5596 8.31351 50.6052
693 1 12.6002 23.4728 49.4222
644 1 33.098 8.13302 48.7068
646 1 1.05266 12.4927 50.8355
1821 1 1.02139 28.2309 28.4243
649 1 8.28095 10.2348 47.7235
651 1 12.784 11.0096 49.0621
653 1 16.8156 9.73064 49.0514
655 1 23.0501 10.1348 47.9747
656 1 26.6687 12.8321 49.8158
658 1 33.0309 12.6329 49.0747
660 1 0.647975 17.1546 50.462
663 1 8.16976 14.3865 48.2729
1897 1 14.1006 28.1031 35.9971
503 1 26.8414 6.48562 38.492
2035 1 8.24103 27.8666 48.8717
643 1 29.2743 5.94333 47.6392
308 1 30.8158 12.2129 22.9847
1823 1 5.08048 28.3097 29.7701
1825 1 9.56679 28.4571 29.5524
2037 1 12.8999 27.3785 48.9766
1963 1 3.91475 28.1007 41.1381
1833 1 27.5339 28.318 31.8135
359 1 19.1625 5.90187 24.5456
425 1 9.27179 5.74087 29.2731
563 1 4.22871 5.69477 41.4636
636 1 9.99818 8.27605 51.1869
638 1 14.187 7.89743 52.2002
758 1 0.738441 26.073 56.2383
640 1 20.5265 7.77438 51.3214
913 1 2.78456 6.02153 71.5501
717 1 3.21522 10.5569 53.7048
650 1 10.2237 12.2984 51.9238
652 1 14.696 12.3614 51.8927
723 1 18.0601 10.1081 53.5099
654 1 20.639 12.7304 51.058
725 1 23.8984 10.6511 52.5521
727 1 30.1632 10.7083 52.2435
731 1 2.75986 15.2482 54.1271
733 1 7.10291 14.5218 54.193
1061 1 28.9598 6.69986 74.6682
664 1 9.77737 16.8718 51.4326
666 1 14.5793 16.7475 52.1992
737 1 18.1018 14.5419 53.8913
739 1 24.3807 14.7173 52.3494
985 1 10.315 5.88636 74.7354
741 1 30.3322 14.913 51.6034
745 1 3.23389 19.5539 54.43
751 1 17.9725 19.1727 53.9825
915 1 9.59984 6.27763 70.112
753 1 24.4237 19.3797 53.2469
740 1 27.9797 16.6883 54.4144
755 1 30.1358 19.4542 52.4947
759 1 3.53264 23.6548 54.1471
692 1 9.42071 26.1348 52.0144
845 1 7.50346 6.07417 65.5254
680 1 14.8994 21.3973 52.8713
765 1 18.3268 23.5946 54.0505
730 1 0.323576 16.6433 56.6431
767 1 23.5921 24.0185 53.5707
754 1 27.7128 22.2974 54.7688
769 1 30.5179 24.0319 51.5971
756 1 33.6796 21.2561 53.5731
2103 1 3.47768 28.4789 54.5097
1111 1 11.2432 23.9423 78.857
1119 1 33.8786 23.7762 75.7096
1059 1 23.3996 5.97116 76.7587
694 1 14.5365 26.2017 52.3946
1063 1 33.8656 6.24332 75.8741
768 1 27.6698 26.1447 54.6169
713 1 30.3882 6.07592 51.32
1105 1 33.7523 19.5712 75.9098
704 1 4.51824 8.34716 57.0778
706 1 9.11571 8.24124 57.8632
708 1 15.2834 8.24168 56.5481
983 1 3.71678 6.12068 75.5308
710 1 21.5423 8.1407 55.7693
712 1 27.8914 8.15552 54.7577
718 1 4.59595 12.5562 57.4165
719 1 7.69467 10.6469 54.4633
721 1 11.7067 10.0592 54.7701
720 1 9.44136 12.7315 57.9924
722 1 15.294 12.3665 56.5881
724 1 21.8242 12.7998 55.6893
795 1 24.551 10.1745 57.2924
726 1 27.6509 12.7202 54.7276
797 1 31.68 10.4889 56.4164
732 1 4.92951 16.7608 57.9869
734 1 9.35646 16.8079 58.0922
735 1 11.4394 14.5247 55.0751
738 1 21.7449 17.258 55.3879
809 1 24.8445 14.7308 57.5378
811 1 31.5283 14.5594 56.141
747 1 7.3801 18.9584 54.5379
749 1 11.6441 19.2265 54.8468
750 1 15.4073 21.208 56.754
736 1 15.4524 16.9297 56.7932
823 1 26.1569 19.5576 57.1159
825 1 30.8555 19.2386 56.3664
761 1 7.86432 23.6045 54.8712
746 1 4.82062 21.5151 57.9635
763 1 11.882 23.9016 55.3418
835 1 19.0192 23.4563 58.4014
752 1 21.5213 21.6517 55.6329
837 1 24.9624 23.9022 57.552
839 1 31.6168 23.9013 56.191
760 1 5.052 26.0633 57.6099
762 1 9.37425 26.0728 57.4583
923 1 33.0355 5.67794 65.2406
764 1 15.7854 25.8687 56.1421
766 1 21.0756 26.3073 55.3839
777 1 13.3518 6.03312 59.3834
778 1 16.315 8.33427 61.1565
780 1 22.8958 8.17749 60.1661
782 1 28.9496 7.77829 59.2059
1091 1 33.8957 15.0424 76.0643
787 1 2.48275 10.3684 59.8669
789 1 6.80626 10.2934 60.8786
791 1 12.5477 10.7787 59.4133
792 1 16.4944 12.1806 61.3844
793 1 19.2838 10.1458 58.067
794 1 22.3717 11.9088 60.4277
796 1 28.4986 12.3409 59.3659
867 1 32.6114 10.1758 60.6964
801 1 2.91827 14.7379 60.0637
803 1 6.88161 14.7851 61.4501
805 1 13.5258 14.6211 59.4166
807 1 19.2747 14.4168 58.1271
810 1 28.5642 17.0208 58.6567
881 1 32.2336 14.8625 60.6619
815 1 2.21076 19.1167 60.2134
817 1 6.91638 19.4603 60.7375
819 1 12.9055 19.4937 59.2742
821 1 18.9671 19.0345 58.5663
806 1 16.7577 17.4031 61.1144
808 1 22.959 17.3669 59.999
895 1 32.5606 19.2667 60.3139
829 1 1.90515 23.5705 60.0429
831 1 7.86947 24.0986 60.6772
748 1 9.63514 21.3266 58.2596
833 1 12.5041 23.736 59.3077
820 1 16.5903 21.8163 60.9494
822 1 22.7278 21.9463 60.2297
907 1 26.3246 23.8685 61.8997
824 1 28.7723 21.6345 59.399
909 1 32.4393 24.0231 60.2255
2173 1 2.41057 28.0741 59.917
2175 1 6.85204 28.4934 60.9934
1069 1 11.0414 10.4291 78.4294
834 1 16.4119 25.6755 60.8437
836 1 23.0537 25.668 60.2189
838 1 29.0034 26.3453 58.8207
6537 1 33.9168 20.1172 69.8607
774 1 4.44117 8.47659 63.4227
776 1 10.61 7.637 62.3327
954 1 0.254239 21.4978 73.8839
850 1 23.0871 7.82708 64.1288
852 1 30.3121 8.33993 63.5204
788 1 3.99076 12.4972 63.8426
859 1 7.99434 10.2156 65.3204
790 1 10.5086 12.1329 62.1758
861 1 13.9992 10.23 63.8247
863 1 19.6176 10.2334 62.783
865 1 26.3525 10.1011 61.7235
864 1 23.3573 12.5026 64.0092
866 1 29.8476 12.5723 63.7747
873 1 7.42057 14.5784 65.7193
804 1 10.5247 16.2259 62.6356
875 1 13.7925 14.9212 64.0828
877 1 19.9874 14.9087 62.8171
879 1 26.0004 14.6681 62.0228
878 1 23.9159 17.006 64.5786
951 1 33.1519 15.3539 65.1203
802 1 4.45649 16.8743 63.5189
889 1 14.0157 19.211 64.0267
891 1 20.518 19.5133 62.6091
893 1 26.0058 19.2082 61.8448
880 1 29.4881 17.3388 63.2974
1033 1 33.5132 19.8963 65.1914
816 1 4.10281 21.5149 64.0372
818 1 10.7396 21.6578 62.3976
903 1 13.9766 23.7637 64.1645
905 1 20.0986 24.2375 62.7293
892 1 23.6818 21.9114 64.744
894 1 30.1531 21.2612 63.417
964 1 32.896 24.196 64.9971
830 1 4.10571 26.3552 63.8922
832 1 10.4893 26.5575 62.262
2253 1 32.9954 27.8985 60.7585
2247 1 14.3455 28.5673 63.8252
668 1 20.1394 16.8773 51.3111
906 1 23.9073 26.317 63.9159
908 1 29.3806 26.8389 63.3867
917 1 14.3876 5.71107 68.4186
844 1 5.60703 7.90848 68.6995
846 1 11.5825 8.11553 66.9552
848 1 17.0753 7.62801 65.7809
2181 1 24.9068 28.4745 57.1566
772 1 0.186874 8.19701 63.2061
922 1 30.8269 8.42168 68.393
857 1 2.28815 10.1779 66.7286
858 1 4.92301 12.3003 68.401
860 1 11.1446 12.3566 66.936
931 1 15.3468 10.446 68.1559
862 1 18.0365 12.4114 65.497
933 1 20.82 9.91445 67.0195
935 1 26.7755 10.176 66.27
937 1 33.5588 10.6242 65.5819
936 1 30.9251 13.0773 68.3708
871 1 1.67091 15.3191 66.6475
945 1 15.0213 14.704 67.9565
947 1 20.744 14.2805 67.5513
949 1 27.1343 15.0485 66.5585
885 1 1.90516 19.3091 66.3881
887 1 7.96946 19.2187 64.9627
872 1 5.18763 17.1706 68.1844
874 1 11.1475 17.0999 66.6217
959 1 14.9247 19.2196 68.581
876 1 17.6661 17.0369 65.6379
961 1 21.1085 19.2785 67.1789
963 1 27.2783 19.5704 66.4633
950 1 30.7943 17.5993 67.5664
899 1 1.80216 24.0958 67.2577
886 1 5.51245 21.6478 68.4152
901 1 7.98841 23.9268 65.2252
888 1 11.4574 21.2338 66.6136
973 1 14.9961 23.8304 68.7012
890 1 17.3781 21.4214 65.4229
975 1 21.4847 23.9063 67.2143
977 1 27.1025 24.1473 66.3223
1035 1 30.1313 22.2356 67.8317
1077 1 33.6878 10.3371 75.5983
900 1 6.06344 26.2611 68.0371
902 1 11.8951 26.015 66.8331
702 1 0.520105 7.89886 57.2251
904 1 17.5532 26.0698 66.1997
714 1 33.9063 8.38971 53.4105
978 1 30.4267 26.9695 67.9959
1118 1 31.4645 26.3571 78.4258
916 1 12.6605 8.02773 71.3184
918 1 18.5446 7.55712 70.1134
920 1 24.1383 7.97524 68.5615
927 1 2.98095 10.7082 71.3929
929 1 9.23314 10.8258 69.7778
930 1 12.8217 13.0527 71.0925
932 1 18.2498 12.5341 70.133
1003 1 22.4279 10.6717 72.1084
934 1 24.4041 12.6789 68.4159
1005 1 28.3868 11.136 70.4172
941 1 2.92817 15.1996 71.198
943 1 8.80206 14.825 70.0663
944 1 12.4763 17.5353 71.1212
946 1 18.2743 17.3182 70.3345
1017 1 21.6995 14.6386 71.9954
1019 1 28.3839 15.6218 71.2059
955 1 3.06124 19.2837 70.6393
957 1 9.24207 19.2972 69.6651
1031 1 21.5659 19.3149 72.0066
948 1 24.1366 17.3665 69.2143
1020 1 28.0811 19.393 71.0528
969 1 2.91128 23.9024 70.8151
971 1 9.51892 23.9679 69.6062
958 1 12.6791 21.506 71.6306
960 1 18.3758 21.9241 70.0082
1045 1 22.0099 23.7924 71.8857
962 1 24.4413 21.9461 69.5467
1047 1 28.3971 23.7179 70.8388
696 1 20.7405 26.0535 51.3823
1049 1 34.0398 24.3795 69.2552
972 1 12.8614 26.0416 71.3407
974 1 18.8991 25.9304 70.4926
781 1 24.8058 5.90203 57.5355
976 1 24.6419 25.9817 68.8938
678 1 10.2801 21.458 51.7726
914 1 6.73628 8.15913 72.6022
1116 1 27.5181 26.5961 78.3858
988 1 19.722 7.62514 74.5183
990 1 25.3521 8.58587 73.641
1055 1 11.2944 6.06225 78.5452
2179 1 19.5163 28.0956 58.3159
992 1 31.757 8.48786 72.2154
928 1 6.20169 12.4406 72.9751
999 1 10.3635 10.6489 74.4106
1001 1 16.171 10.1371 72.7199
1002 1 19.0333 12.3263 74.983
1004 1 25.7958 13.0905 72.9811
1006 1 32.2822 13.3582 72.2481
991 1 27.8781 5.95118 70.1302
1011 1 3.93763 15.4553 75.7283
1013 1 10.3252 15.1383 74.4319
1015 1 15.9229 14.7663 72.8099
1016 1 19.8784 16.2845 74.7675
1089 1 29.42 15.1102 75.2068
1025 1 3.88033 19.1881 75.1814
942 1 6.84487 17.1595 72.2061
1027 1 10.017 19.5446 74.9387
1029 1 16.3835 19.171 73.0593
1018 1 25.6156 17.6549 73.7216
1103 1 29.8097 20.1371 75.1368
1022 1 32.2289 17.3095 72.0965
2461 1 29.2176 28.5949 74.9199
1039 1 3.89506 23.9061 75.4717
956 1 6.4875 21.7399 72.4805
1041 1 10.1988 24.1356 74.2422
1043 1 16.097 24.2819 73.2049
1030 1 19.3354 21.0121 74.5308
1032 1 25.7461 22.2179 74.1014
1117 1 29.0157 24.0951 75.7355
1034 1 31.8678 21.9904 72.3334
2113 1 30.5893 28.2316 52.0036
970 1 6.60544 26.4077 72.4645
662 1 5.29789 16.9738 51.1192
1044 1 19.708 26.562 74.9675
1046 1 25.4913 26.3704 73.7467
1048 1 32.2238 25.6846 72.6578
982 1 1.39458 8.53919 78.1964
984 1 7.63801 8.27052 76.8265
2245 1 8.49246 27.7866 65.2996
986 1 14.2693 8.24526 75.7242
676 1 5.83291 21.6765 51.0821
1060 1 26.8623 8.45046 78.4531
1062 1 31.4008 8.42738 78.8073
997 1 3.7594 10.6381 75.3576
996 1 1.0527 13.1813 77.9943
998 1 7.49702 12.949 77.4094
1000 1 14.3667 12.8125 75.7778
1071 1 17.7315 10.1023 77.8058
1073 1 23.3747 10.6736 76.1431
1074 1 27.2158 12.7809 77.5446
1075 1 29.222 10.469 75.054
1076 1 31.7155 13.0289 78.9332
1083 1 11.57 14.8159 79.0225
1014 1 13.4258 17.4732 75.6559
1085 1 17.236 14.4904 77.5584
1087 1 22.9858 14.5748 76.4313
1088 1 26.4521 17.1482 78.2361
1010 1 1.08859 17.8661 78.4843
1012 1 7.72251 16.9369 77.7024
1097 1 11.5759 19.4245 78.9738
1099 1 17.3942 19.2543 77.4602
711 1 24.4077 6.04491 52.8359
1101 1 23.111 19.1375 76.683
1090 1 31.5349 17.537 78.5268
1024 1 1.40771 21.5662 78.3245
1026 1 7.7008 21.3481 77.1275
728 1 34.2871 12.8452 53.5625
1028 1 14.0512 21.9629 75.663
1113 1 17.7334 24.1637 77.6555
779 1 19.2304 6.21345 58.0704
1115 1 23.046 23.3753 76.4958
1102 1 26.8525 21.7063 78.2878
1104 1 31.214 21.8578 79.3118
989 1 22.2305 5.87543 71.4215
1038 1 1.26215 26.1193 77.8369
1040 1 8.02455 25.7179 76.9196
1042 1 14.2084 25.9545 76.3899
2105 1 7.69586 28.4022 54.6368
2457 1 17.0859 28.3631 77.4153
1058 1 20.7792 7.98472 79.0065
2319 1 20.97 28.2655 66.9744
2313 1 3.19642 27.8362 70.9766
2317 1 15.571 28.4338 68.2096
2107 1 11.9102 28.2438 55.2177
2463 1 33.7128 28.5638 76.077
703 1 3.07712 6.19291 54.229