ITEM: TIMESTEP
18000
ITEM: NUMBER OF ATOMS
16000
ITEM: BOX BOUNDS pp pp pp
7.8110943109262365e-01 1.0141889056890692e+02
2.2643743694389045e+00 9.9935625630561759e+01
-9.3571553752687464e-01 1.0313571553752759e+02
ITEM: ATOMS id type x y z
71 1 2.97255 3.4762 2.58976
1687 1 16.2769 26.6066 20.1858
411 1 11.0349 21.5989 24.6834
40 1 28.443 14.792 -0.267234
1757 1 16.3173 26.1152 24.7127
1753 1 6.28441 25.9168 24.7444
5874 1 34.1842 6.63564 20.3201
1751 1 1.63537 25.7969 23.9315
1473 1 6.50335 26.2504 3.47502
11021 1 0.764536 9.75735 16.8671
14 1 33.5927 4.46395 -0.302634
85 1 2.07001 8.02619 2.97384
87 1 6.51024 7.41193 1.3672
89 1 12.1059 8.11874 2.28663
91 1 16.73 7.40471 2.03822
93 1 21.5514 6.99549 1.97862
95 1 26.4451 6.57144 1.72643
16 1 3.55831 9.67543 -0.54794
1681 1 2.39729 26.3887 18.2731
20 1 15.056 10.7854 0.734759
22 1 19.4796 10.0091 -0.0198384
105 1 17.3143 13.2864 2.52332
107 1 22.2137 12.1459 1.60305
24 1 23.7783 9.53625 -0.619177
26 1 29.1845 8.87096 -0.0225326
111 1 31.1301 12.0997 2.25154
28 1 33.2131 9.27985 0.501876
30 1 3.87676 15.4278 -0.881223
101 1 6.50616 12.1353 1.35261
32 1 9.2762 14.6361 -0.914355
34 1 13.8455 14.5846 -0.647521
353 1 8.04157 2.38682 24.051
109 1 26.7136 12.0394 2.44401
351 1 2.67868 2.49858 23.4038
11073 1 1.01098 5.56013 20.495
42 1 33.8162 14.8434 -0.083127
44 1 4.06524 19.6116 0.117697
115 1 6.54403 17.2409 2.00967
46 1 8.78763 19.7727 0.111854
119 1 16.0532 17.2563 2.18931
121 1 22.19 16.9174 2.09204
52 1 25.1401 19.1275 -0.405349
123 1 26.4426 16.8615 2.56185
54 1 29.4423 19.4451 -0.115661
379 1 2.33293 12.7503 24.7448
125 1 30.865 16.5182 3.16589
129 1 6.20351 21.9208 2.60016
48 1 14.0434 19.2672 -0.507897
50 1 18.6943 19.6282 0.672558
135 1 22.4632 21.1251 1.65871
137 1 26.7597 21.6224 2.95791
1543 1 7.04391 26.14 8.17374
58 1 4.61774 24.3932 0.14275
60 1 9.32062 24.1841 0.122737
62 1 14.1695 24.048 -0.441164
64 1 19.5004 24.181 0.229142
1611 1 1.04186 26.6304 14.1931
66 1 25.6203 24.3432 -0.611161
68 1 29.5642 24.1582 -0.180807
1481 1 27.531 26.2704 3.03561
72 1 5.4602 5.10796 4.88476
74 1 9.09544 4.80621 4.26755
76 1 14.8426 4.82427 4.18815
78 1 19.348 4.26099 4.34026
1475 1 12.4976 26.1889 2.89977
80 1 23.5594 4.11838 4.04731
82 1 28.0581 3.47482 5.07824
84 1 33.3651 3.87746 5.8922
96 1 28.7321 9.16487 4.70745
97 1 31.8974 6.07969 3.12862
98 1 33.3848 9.07611 5.23938
99 1 2.5814 12.5636 2.21158
86 1 4.97584 9.51463 5.18095
88 1 8.939 9.49444 4.47737
90 1 14.9293 9.90971 4.59156
92 1 19.6321 9.80484 4.06782
94 1 24.8393 9.08522 3.98074
100 1 4.19999 15.2597 5.70311
103 1 11.7468 12.7926 2.66522
102 1 8.022 14.6444 4.92545
104 1 14.2685 14.5379 5.7235
106 1 19.6273 15.3632 4.8069
108 1 24.2227 14.6375 5.60956
110 1 28.6359 13.612 5.47427
112 1 33.2054 13.6798 6.1386
113 1 1.72275 17.1643 2.87558
114 1 4.59191 19.3046 5.95629
116 1 9.22138 19.2626 4.71814
117 1 11.4674 16.7961 2.74592
118 1 14.3961 18.9647 6.03841
124 1 28.565 18.4043 5.69573
127 1 2.07126 21.7158 3.03805
131 1 12.0097 21.4453 2.79444
133 1 16.6603 21.717 3.19097
120 1 19.3395 19.4349 4.61083
122 1 23.8632 19.2567 5.81024
139 1 31.2087 21.4174 3.25314
126 1 33.0396 18.813 6.63248
183 1 0.771951 16.6335 7.51457
128 1 4.57478 23.9221 6.52356
340 1 8.79055 24.365 21.225
130 1 9.2468 23.9759 5.6626
1619 1 21.4287 25.6625 14.4985
132 1 14.044 23.599 5.31755
348 1 27.4316 23.1475 23.5981
134 1 20.24 24.1567 3.96483
136 1 24.0371 24.0511 4.97943
138 1 29.0262 23.1455 6.03937
197 1 1.06457 22.0946 8.89426
140 1 33.69 23.5179 7.05971
141 1 1.75889 2.97732 8.04591
143 1 8.54038 2.91685 7.72556
145 1 13.094 2.63267 7.94035
147 1 17.0872 3.1364 7.3855
338 1 4.4074 24.4017 21.4655
155 1 1.71948 7.51377 7.56959
157 1 7.68883 7.28604 7.51869
159 1 11.5397 7.08325 6.47738
161 1 17.8005 8.24582 7.19143
163 1 22.2121 6.59035 6.72308
165 1 26.0852 6.15241 7.24192
167 1 30.2717 6.1094 7.02222
169 1 2.25679 12.3083 6.92622
171 1 6.85832 12.0081 7.99393
173 1 11.1828 11.7919 6.56894
175 1 17.3949 12.1111 7.2117
177 1 21.964 11.1557 7.17934
179 1 26.6973 10.8009 7.88562
166 1 28.3112 8.64113 10.6593
181 1 30.732 11.377 8.17025
174 1 15.2722 14.3968 9.95582
176 1 19.7569 13.5758 10.6812
77 1 16.5308 2.67484 1.70873
185 1 7.02691 17.4067 8.3979
187 1 11.6744 17.3769 8.38522
189 1 17.7887 16.6536 8.0887
191 1 21.6639 16.7334 7.9902
193 1 26.2588 17.0397 8.82867
195 1 30.7787 16.095 8.31895
199 1 6.99187 21.0439 8.47716
201 1 11.0375 20.9675 7.77464
203 1 17.3586 21.9112 8.08826
205 1 21.6176 21.4567 8.11256
207 1 26.667 21.5247 8.88711
209 1 30.6937 20.6305 9.50154
1689 1 20.7167 25.8782 20.4368
1541 1 1.7369 26.13 8.37673
1545 1 12.6507 26.1814 7.9272
1547 1 17.7629 25.7286 7.51603
1549 1 22.3695 26.0732 7.91813
1551 1 26.4995 26.1382 8.16433
1553 1 30.8272 26.0298 8.56945
213 1 8.78857 2.47905 13.1072
144 1 10.612 5.30971 10.7288
215 1 13.2032 3.08203 12.6849
146 1 15.0193 5.92972 9.72294
148 1 18.9326 5.23447 10.3973
1615 1 11.327 25.9962 13.8057
150 1 23.4815 4.39306 10.8294
152 1 28.1981 4.18881 10.8461
154 1 32.9793 4.68772 10.6871
142 1 4.36509 5.77518 10.4432
227 1 7.67993 7.74706 12.2174
229 1 12.8571 7.75133 13.175
231 1 17.3426 7.44671 13.0985
233 1 21.7921 7.24601 13.8873
235 1 25.8473 6.8487 14.0731
156 1 4.1032 10.0804 10.7429
239 1 2.62415 12.7158 13.5979
241 1 7.05442 12.2276 12.7449
158 1 10.4566 10.0069 9.90666
160 1 14.5725 10.3327 9.58198
243 1 12.2978 12.465 13.3065
245 1 16.7839 11.167 13.2209
162 1 19.4503 9.65741 10.6351
247 1 21.8574 11.9136 13.5784
164 1 24.0566 9.23621 10.1711
249 1 26.6318 11.4595 13.4911
251 1 30.27 11.2633 14.0488
168 1 32.8944 8.93155 11.828
170 1 3.89201 14.5687 10.352
172 1 9.74199 14.3235 10.5704
178 1 23.9736 14.0011 10.2956
180 1 28.3465 13.295 10.5442
182 1 32.9982 13.5346 11.5269
184 1 3.85689 19.2197 10.0352
255 1 6.82813 16.8628 13.0806
186 1 9.70405 19.0193 11.2025
257 1 12.4548 16.6476 13.8532
188 1 14.8463 19.082 10.7142
259 1 17.1716 15.9398 12.7238
190 1 19.4004 19.0193 11.4813
192 1 24.0238 19.4345 10.9716
194 1 28.3513 19.1505 12.392
196 1 32.3317 18.7192 12.7197
269 1 6.65347 21.4787 13.1598
271 1 12.691 21.2627 13.7878
273 1 17.2294 21.3064 13.6628
275 1 21.6379 21.8679 14.1186
198 1 3.69211 24.4643 11.1733
1613 1 7.4279 26.2285 12.9243
200 1 10.0492 23.293 10.5954
1483 1 31.5985 25.7652 3.5826
202 1 14.6911 23.8262 11.5051
204 1 19.1068 24.342 10.9027
206 1 23.7646 23.8403 11.4167
208 1 28.4171 23.8265 11.9199
210 1 33.3748 23.8363 11.8363
211 1 2.08366 3.41683 13.1021
212 1 5.6305 5.07566 15.5676
214 1 9.87149 5.54381 15.5203
216 1 14.3657 5.31984 15.878
217 1 17.2444 2.70813 13.2204
218 1 19.0098 4.9946 16.7315
219 1 21.0848 2.78265 13.4777
220 1 23.9641 4.52131 16.9014
222 1 27.9495 4.21548 17.2047
346 1 23.796 22.6564 22.017
224 1 32.6246 4.57345 17.3501
225 1 3.2465 7.94198 13.8574
236 1 27.9736 8.98801 17.1389
237 1 30.2226 6.66569 13.9137
238 1 32.5225 8.72858 17.4833
226 1 6.47307 9.19657 15.3082
228 1 10.0973 10.3611 15.6188
230 1 14.7839 9.65373 15.9895
232 1 19.2509 9.54281 16.7229
234 1 23.9931 9.3379 16.7639
240 1 4.9979 15.0481 15.7149
242 1 9.39986 14.1965 15.8409
244 1 14.9663 14.279 15.5331
246 1 19.4998 14.251 16.4691
248 1 24.2212 13.8089 15.9237
263 1 25.9591 17.0568 14.8836
265 1 30.4087 15.6231 13.9067
253 1 2.06186 17.432 12.8853
254 1 4.43383 19.7842 15.655
256 1 9.03278 18.9336 15.9081
258 1 14.5921 18.7132 16.1146
260 1 19.2077 18.9862 15.9828
261 1 21.8728 16.013 13.0349
267 1 1.20186 22.0761 13.8804
262 1 23.4529 19.0006 17.3142
277 1 25.5137 21.8368 15.0796
279 1 31.0397 21.857 15.0503
350 1 32.8926 22.781 23.9725
268 1 4.70757 23.936 15.4947
270 1 9.34781 23.5899 16.2822
272 1 14.3995 23.6883 16.5017
274 1 18.589 23.3221 17.49
1691 1 25.7246 26.5025 22.0086
276 1 24.0984 24.5609 18.1145
1621 1 25.8839 26.6703 14.7701
1623 1 31.0633 25.9228 15.0373
342 1 13.4129 23.5207 22.2473
283 1 7.96119 3.418 18.7285
285 1 12.3457 3.41634 19.1363
287 1 16.0234 2.91903 19.4943
289 1 20.878 2.74499 19.4137
393 1 3.03767 17.4335 25.224
75 1 11.8261 2.34743 1.68227
295 1 3.57497 7.94702 18.4457
297 1 7.57154 7.85571 18.8323
299 1 11.758 7.78025 19.0674
301 1 16.3587 7.72716 19.0032
303 1 21.0767 7.02567 19.2864
305 1 25.5964 7.323 19.9825
307 1 30.1126 6.93447 20.4724
309 1 3.15889 12.7285 18.738
311 1 7.40891 12.5584 18.7061
313 1 11.9045 12.3762 18.6023
315 1 16.636 12.3774 19.2449
317 1 21.4321 11.7988 18.9093
319 1 25.4468 12.4004 20.1995
321 1 29.9629 11.4246 19.8812
333 1 26.4114 15.9622 19.4545
250 1 28.1591 14.085 16.7444
335 1 30.4823 16.3845 19.9862
252 1 32.7522 13.4346 17.0912
323 1 2.56672 17.1786 19.1343
325 1 7.7341 17.1001 18.8784
327 1 12.2106 16.8688 18.5217
329 1 16.3892 16.3086 18.5273
331 1 21.0839 16.5734 19.5695
264 1 28.8764 18.9023 16.9503
266 1 33.4874 19.332 17.5446
337 1 1.90073 20.9094 19.3477
339 1 7.30294 21.9586 18.8188
341 1 11.7016 21.4116 18.5495
343 1 16.3107 20.1457 18.9605
345 1 20.7488 21.1291 19.7318
347 1 26.0774 20.6435 19.858
349 1 30.5343 21.0621 20.8144
56 1 33.4978 19.055 0.115982
1683 1 6.66164 26.3785 19.0545
1685 1 11.6603 25.8763 19.5525
344 1 17.9419 23.4836 22.1559
1693 1 30.1048 25.5946 21.4061
278 1 27.9133 23.5455 17.6497
280 1 32.5666 23.4598 18.4743
282 1 5.2951 5.52563 22.0178
409 1 6.81368 21.7531 24.5795
284 1 9.14018 5.88813 22.4838
288 1 18.6106 5.66069 22.3971
290 1 22.7225 5.21387 22.9961
292 1 27.3819 4.60686 23.2828
294 1 32.105 3.90208 23.4273
365 1 2.31954 8.15246 24.8344
286 1 13.3105 5.7327 22.202
306 1 27.4297 9.59751 23.3652
1617 1 17.5025 26.1499 14.0906
296 1 5.26746 10.547 21.8566
298 1 9.84661 10.518 22.4142
300 1 14.0312 10.4416 22.2969
302 1 18.8232 9.79061 22.3897
304 1 22.7377 9.76903 22.6749
308 1 31.7227 9.22369 23.6001
310 1 5.50604 15.0546 22.1383
312 1 9.44212 14.9855 21.7894
314 1 13.9588 14.1705 21.8185
316 1 18.8319 14.4406 22.1303
318 1 22.9953 14.9092 22.6449
320 1 27.5623 14.3676 22.9443
322 1 32.0906 13.4854 22.6451
324 1 5.19209 19.6956 21.535
326 1 9.73767 19.774 21.4932
328 1 13.4602 18.7228 21.9006
1477 1 16.3891 26.3847 1.99035
330 1 18.4522 18.8499 22.0432
332 1 23.2109 18.8622 23.1597
334 1 27.1481 18.5085 23.2292
336 1 32.6445 18.0533 23.8109
407 1 2.17125 21.5736 24.773
70 1 33.9472 23.3954 0.167221
1471 1 2.15753 26.3487 3.74176
281 1 3.53729 2.29964 18.1516
355 1 12.0887 2.49592 23.8251
385 1 15.9441 12.3228 25.0378
413 1 15.8462 21.4026 24.8005
415 1 20.4265 21.4903 24.9851
395 1 7.2361 17.8093 24.9547
397 1 11.3418 17.0935 24.8374
367 1 6.96744 8.44765 24.8558
1755 1 11.0984 26.3417 24.6901
18 1 9.13217 9.97943 -0.988305
38 1 24.658 14.3249 -0.68707
352 1 4.85262 4.74589 26.6007
354 1 9.14803 3.90224 27.2423
356 1 13.8456 4.54905 26.6041
358 1 17.7108 4.30235 27.4346
360 1 22.5257 4.6474 26.9963
672 1 34.0114 14.1486 49.6459
369 1 11.5963 8.45914 25.5601
371 1 16.1141 7.74417 25.3739
373 1 20.6834 7.97449 26.3053
375 1 25.2511 7.61887 26.079
377 1 29.3942 7.62224 26.751
366 1 4.3207 10.3798 28.1925
368 1 9.10438 10.0256 28.3424
561 1 0.871354 2.92759 42.1195
370 1 13.712 9.94377 28.5256
1895 1 10.9285 26.4633 36.8048
387 1 20.4504 11.9762 25.827
389 1 25.0424 12.2524 25.9975
391 1 29.7881 12.0258 26.5002
380 1 4.38469 14.989 28.0239
399 1 16.0084 16.5834 25.2485
382 1 8.96781 14.7937 28.2761
384 1 13.0011 14.6946 28.0781
386 1 18.1524 14.1429 28.5766
499 1 20.11 2.95061 37.9142
394 1 4.86683 19.6396 28.2311
686 1 33.888 18.9496 48.8757
396 1 8.87945 19.4168 27.9847
383 1 11.231 12.5627 25.4037
398 1 13.1707 19.1449 28.0418
400 1 17.7109 18.9197 28.2495
694 1 18.655 24.0139 51.1076
403 1 24.9923 16.7763 25.8492
405 1 29.6933 15.8305 26.1177
6017 1 33.7918 11.4383 33.0092
1965 1 11.073 25.9092 42.8214
417 1 24.9657 21.0104 26.1842
419 1 29.698 21.1071 25.8047
5965 1 34.0944 16.0918 27.4845
408 1 3.91675 23.8381 27.7306
410 1 8.44327 23.9451 27.8675
1901 1 24.8179 26.1932 37.8196
412 1 12.8897 23.3375 28.3103
414 1 17.6976 23.5492 27.6558
565 1 10.6111 3.35754 43.3518
659 1 0.970205 11.711 47.4978
416 1 22.3882 23.3979 28.4187
5978 1 34.1832 20.5534 27.2657
1763 1 29.856 25.5912 25.8882
418 1 27.0065 23.2757 28.942
420 1 31.5358 23.4395 29.4709
654 1 23.5916 9.59307 50.6288
421 1 2.26381 3.03834 30.1054
423 1 6.72547 2.66468 30.2278
6004 1 34.4212 6.29773 30.9964
1759 1 21.1569 25.4148 25.2131
362 1 27.0396 3.73406 27.7494
364 1 31.9295 4.56418 28.0846
435 1 1.92695 7.73514 29.4223
437 1 6.21474 7.36832 30.28
438 1 8.93028 8.84678 32.9145
439 1 11.0018 6.29847 29.8641
441 1 15.6861 6.05285 30.5848
443 1 20.1453 6.57688 30.5928
445 1 24.7472 6.18327 30.8262
447 1 29.5036 6.24695 31.0032
449 1 2.21577 12.7765 31.5249
451 1 6.56046 12.412 31.6993
453 1 11.0956 12.3396 31.4994
372 1 18.4055 10.2855 28.5613
457 1 20.3081 13.2658 32.7481
374 1 23.0596 10.4633 29.1487
376 1 26.9596 9.94415 29.6336
378 1 31.4681 9.47172 29.2662
455 1 15.8437 12.3405 32.0382
388 1 22.7147 14.5449 29.2287
390 1 27.4527 14.692 29.0789
392 1 31.2781 14.0491 30.0609
463 1 2.11928 17.1584 31.0641
465 1 6.13526 16.8754 30.8354
467 1 10.3185 17.1226 30.9738
469 1 14.9466 16.8046 30.6343
471 1 20.0588 17.1564 31.8877
402 1 22.4368 19.2189 28.5311
404 1 27.1016 19.5272 29.1494
406 1 30.8393 18.7613 29.7127
477 1 1.91346 21.3963 31.412
479 1 6.02593 22.3568 31.0615
481 1 10.7141 21.7619 31.1949
483 1 16.0694 21.3793 31.0528
485 1 20.3888 21.4546 31.0109
487 1 24.7447 21.441 32.0431
489 1 29.7821 21.5645 32.5199
648 1 6.72445 10.8064 50.9498
688 1 1.80653 23.7929 49.362
1823 1 6.96362 26.0218 31.9911
1825 1 11.3123 25.7413 30.9635
1827 1 15.9327 25.9206 31.0069
1829 1 19.8358 26.0915 31.2162
1831 1 24.6943 26.2775 31.6247
1833 1 30.3098 26.2806 32.2755
533 1 1.04284 16.7233 35.9708
422 1 3.82583 4.95525 32.9621
424 1 9.00829 4.73579 33.6505
426 1 13.4757 4.66223 34.2869
428 1 17.5129 4.89877 34.7859
430 1 22.1844 4.39664 34.1847
432 1 26.779 4.09409 34.5045
434 1 32.2785 3.83789 34.2832
436 1 4.23638 9.69757 32.9889
507 1 6.14361 7.31395 36.426
444 1 22.439 9.09599 33.5717
446 1 26.5674 8.45827 33.9225
448 1 31.0899 8.42207 33.6741
519 1 1.58939 12.1212 36.141
440 1 13.3585 8.76549 33.1858
442 1 17.9759 9.34569 33.4122
459 1 25.0224 12.5158 32.5784
461 1 29.0395 12.4303 32.6761
450 1 4.25396 14.4461 34.3887
452 1 8.94096 15.1028 34.7002
454 1 12.7167 15.1283 34.5211
456 1 17.4451 15.1346 33.9518
458 1 22.9274 15.2492 34.963
460 1 27.0252 14.7578 35.2282
462 1 31.6366 14.6592 34.6738
668 1 24.2267 14.4093 50.7641
464 1 4.71056 19.5959 34.2583
466 1 8.72511 19.6013 33.905
470 1 18.262 19.1563 34.4522
472 1 22.3083 19.9132 34.8772
473 1 24.8542 17.2944 32.1213
474 1 27.0048 19.3193 35.581
475 1 29.15 16.9723 32.9241
476 1 32.3429 19.1558 35.3184
696 1 24.2633 24.5675 50.5628
468 1 13.5682 19.5982 34.1609
478 1 3.48756 24.1442 33.7741
480 1 9.63021 23.988 34.5717
482 1 13.7083 23.5337 34.3092
484 1 18.4089 23.8509 34.5259
486 1 22.1457 24.592 34.2402
488 1 26.8138 24.2395 35.244
490 1 32.7776 23.7656 35.0748
492 1 3.15036 4.95004 39.4393
493 1 6.05462 2.59962 36.5916
494 1 8.54164 5.00074 39.0154
495 1 10.644 2.35745 36.1951
496 1 12.7949 5.53194 39.9517
497 1 15.5836 2.87476 37.4583
502 1 27.6447 4.71776 40.302
504 1 32.9775 3.89968 40.0106
505 1 1.3434 7.2285 36.0178
509 1 10.948 7.11707 36.7947
511 1 15.5716 7.60689 37.2536
513 1 20.379 7.52196 37.1212
515 1 24.4021 6.7147 37.5177
517 1 30.1112 5.80864 37.2639
516 1 27.732 9.25796 39.2664
506 1 4.07161 9.33424 39.2187
521 1 5.7756 11.7578 37.0934
523 1 11.3072 11.707 36.1415
508 1 8.86579 9.4603 39.3609
525 1 15.4216 11.6012 36.2839
527 1 19.5407 11.7561 36.3124
529 1 24.5964 10.8729 37.1243
531 1 29.2759 11.2147 36.3223
518 1 32.3716 8.79259 38.7706
520 1 3.94298 14.7676 39.1785
522 1 8.41129 14.0839 39.1638
524 1 12.5185 13.9771 39.0416
530 1 27.0221 14.1442 39.4426
532 1 32.0321 13.7622 39.1931
534 1 3.33807 19.4561 38.9477
535 1 6.29317 16.7369 36.9668
537 1 10.5633 17.7558 37.0436
539 1 14.9423 17.4688 37.184
541 1 19.6924 17.1272 37.4213
543 1 24.6309 17.2056 37.6332
545 1 29.7465 17.4874 37.9115
546 1 33.1398 18.0357 39.825
549 1 6.47049 21.9331 37.6118
551 1 10.6372 21.8185 37.661
553 1 16.4329 21.3366 37.2357
555 1 20.3794 21.9351 37.8327
557 1 25.2542 21.6694 38.2639
559 1 29.7251 22.1436 37.508
548 1 2.67621 24.1082 38.665
425 1 11.3045 2.53275 30.4535
1893 1 6.33362 26.4742 36.7924
550 1 8.87665 24.148 40.1418
552 1 13.3265 23.8909 39.8507
575 1 1.23633 7.75512 41.5314
5939 1 34.186 7.10118 26.2567
558 1 27.1747 24.0662 41.0579
560 1 31.9516 24.2717 39.8932
563 1 6.6801 2.67549 42.7435
567 1 15.3529 3.16421 43.2885
498 1 17.6203 5.0105 40.3612
500 1 22.182 5.24333 41.4543
640 1 23.7715 4.69128 51.0323
6030 1 33.7154 17.6112 31.9698
577 1 5.89068 7.09098 42.2046
579 1 10.3456 7.24165 42.6528
581 1 15.012 7.75706 42.3089
585 1 25.4136 7.07878 42.5177
587 1 30.3237 5.97543 42.8606
593 1 10.4555 11.9812 42.8376
510 1 12.691 10.0779 39.8861
595 1 14.9035 12.7577 42.9036
512 1 17.4868 9.63436 40.0762
514 1 21.734 9.83641 39.941
599 1 24.8815 10.9706 41.8993
601 1 30.3937 10.5067 41.7724
591 1 6.00057 12.1392 41.8601
607 1 11.4621 15.8808 42.2347
526 1 17.7113 14.3441 39.534
528 1 22.3262 14.1641 39.805
613 1 25.592 16.4096 42.2546
605 1 5.89972 16.7224 41.7695
536 1 8.66942 19.6166 40.8899
538 1 13.24 19.4183 40.6007
609 1 15.5368 17.2755 43.2039
540 1 17.8556 18.9895 40.1435
611 1 19.9459 16.1393 43.2012
542 1 22.2301 19.1768 40.7486
615 1 29.7618 16.5371 42.7092
619 1 4.96855 22.1017 41.4454
621 1 10.8746 21.8715 43.3432
623 1 16.0044 21.5536 43.6708
544 1 27.4294 19.3392 40.482
629 1 30.4746 21.2898 42.2033
571 1 25.368 2.42974 43.41
652 1 17.7524 10.4486 50.8123
1967 1 15.6299 25.9008 44.1083
554 1 17.987 23.6482 40.7247
556 1 22.2708 24.1569 41.0104
666 1 18.2173 15.0509 50.6525
491 1 0.904608 3.03346 35.6822
562 1 3.16301 5.0598 44.7137
564 1 8.47483 5.36697 45.8244
566 1 12.4245 5.94298 45.7126
568 1 16.7418 5.75013 46.978
569 1 19.8699 3.65143 44.1042
570 1 23.2172 5.44903 45.3369
572 1 27.7266 4.60763 45.8848
589 1 1.07229 11.8374 41.7201
574 1 33.774 3.59397 45.0617
647 1 5.07727 7.288 48.3585
583 1 19.1518 7.76546 43.8912
584 1 23.9207 9.28005 45.3339
657 1 31.5744 6.66613 47.2666
588 1 33.4511 9.44259 45.2545
576 1 3.45311 9.60226 45.0453
578 1 7.53343 10.0535 45.3789
580 1 12.1344 9.90751 45.661
582 1 17.0395 10.2372 46.2161
597 1 19.4438 12.2981 43.3065
586 1 28.5134 8.78007 45.3497
590 1 3.05197 14.7587 44.5128
592 1 7.73545 14.9518 44.8274
594 1 13.1171 14.595 45.6753
596 1 17.2326 14.5182 45.8475
598 1 23.6046 13.79 44.3743
600 1 28.1507 12.7378 44.4548
602 1 32.8668 13.411 44.4596
700 1 34.3992 23.9988 48.9599
604 1 3.23482 19.1295 43.6522
675 1 5.29007 17.6645 47.5427
606 1 7.18021 19.6251 44.9759
608 1 12.5562 19.0296 45.4441
610 1 18.3844 18.8861 46.3823
612 1 23.1647 18.6687 45.4243
616 1 32.7284 18.8711 44.1876
381 1 7.06994 13.0153 25.2494
689 1 5.47937 22.3467 48.2454
625 1 20.3237 21.7088 44.3291
627 1 24.8076 22.0007 43.4537
614 1 28.1781 19.3588 44.9511
699 1 31.7831 21.3216 47.18
618 1 3.30891 24.7871 44.9287
620 1 7.75933 24.3176 44.5686
622 1 12.977 23.6757 46.0751
624 1 17.4203 23.613 46.8488
1969 1 19.6697 26.3248 44.2225
626 1 23.3981 24.9701 45.9535
628 1 27.9172 23.3451 44.981
630 1 32.7602 23.655 44.5328
632 1 2.13843 5.51658 50.7497
633 1 4.64646 2.93863 47.8842
635 1 10.1728 2.69802 49.1549
637 1 14.7416 3.5919 50.016
1897 1 15.5141 26.165 37.6004
639 1 20.7883 3.75317 48.649
697 1 26.1439 22.0685 48.0743
641 1 25.3089 2.4251 48.2074
642 1 28.993 4.19881 50.0883
401 1 20.2516 16.4715 25.4099
634 1 7.63945 5.23092 50.6801
649 1 9.59324 8.18461 49.24
651 1 14.6479 8.01636 49.1311
653 1 19.989 8.48132 48.1384
655 1 26.2324 7.40848 47.9945
2035 1 10.3666 25.9069 48.0784
646 1 2.03966 9.48449 50.6351
661 1 5.10139 12.9622 47.9674
663 1 9.85152 12.9526 48.4123
665 1 13.9307 12.4086 49.0604
667 1 20.962 12.438 47.9327
662 1 7.27865 14.8833 50.5785
669 1 26.1679 11.7819 47.6799
671 1 30.8614 12.1336 47.5981
660 1 2.62134 14.9813 50.1286
698 1 29.2092 24.3481 49.5655
681 1 21.2441 16.1852 47.7302
670 1 28.2622 14.8013 50.6061
685 1 31.1193 16.6559 47.1203
695 1 21.4438 21.5829 48.6662
674 1 2.31116 18.8948 50.2638
690 1 7.57957 24.086 50.774
677 1 9.93637 17.4851 47.9152
679 1 14.5884 17.0845 48.3979
680 1 18.158 19.4076 51.1752
683 1 25.9496 16.217 46.7683
682 1 24.1602 19.0872 50.0012
684 1 28.6575 19.3275 49.6998
691 1 9.91261 21.242 47.5716
693 1 14.8724 20.9588 48.1395
1821 1 1.75666 25.9415 30.6472
2039 1 20.4122 26.2908 48.4714
656 1 29.5008 8.93615 50.5467
6043 1 34.2134 21.5786 31.7012
658 1 33.2678 9.67525 50.0924
1899 1 19.9871 26.4565 37.9231
692 1 12.4667 23.9173 50.8223
676 1 7.30242 19.7619 50.9666
703 1 4.0938 3.63365 53.3761
705 1 9.44158 3.43816 54.3712
707 1 14.9502 4.0257 54.5752
709 1 20.7256 3.49225 53.4227
884 1 1.16006 20.2441 66.3476
717 1 3.62991 8.20142 54.4775
636 1 12.1728 5.92167 52.0026
719 1 8.53191 8.12659 54.1197
721 1 14.9327 8.04934 53.9477
723 1 21.2273 8.18741 53.3436
725 1 26.6628 7.35064 52.6279
727 1 31.2096 6.529 52.8934
940 1 1.00207 15.5476 70.7292
733 1 9.16322 12.5567 54.4542
650 1 11.5609 10.2322 51.8869
1119 1 32.714 22.9221 76.1609
737 1 21.3027 13.2643 52.4612
739 1 26.3552 12.096 53.2772
741 1 31.712 12.2807 52.3075
731 1 3.82391 12.4403 53.7533
664 1 11.7019 15.124 51.4168
735 1 14.7442 12.3631 53.6635
814 1 1.08299 20.195 61.8246
828 1 0.933802 24.8565 61.1567
745 1 4.05176 17.0693 53.2419
747 1 9.12744 17.2158 53.8754
678 1 12.178 19.5302 51.3563
749 1 15.2995 16.4819 53.3691
751 1 21.8719 17.3374 52.7516
753 1 27.3246 17.6023 52.9606
754 1 29.5055 20.3843 54.9556
755 1 31.0103 17.0151 51.9264
759 1 4.26772 21.518 52.5979
761 1 9.25236 21.9053 53.7808
763 1 15.3178 21.2463 53.3272
765 1 22.0075 21.2226 52.7093
767 1 26.6052 22.2174 52.8503
769 1 32.3864 21.6125 51.5147
1044 1 19.8381 25.7987 74.8956
758 1 1.67972 24.1118 55.3518
2105 1 9.49894 26.3173 53.7632
919 1 22.3819 2.41732 67.6348
954 1 1.69997 20.0777 70.936
638 1 17.8203 6.17151 51.4839
768 1 30.2947 24.6884 54.4683
783 1 31.8598 2.20486 58.1778
702 1 1.1909 5.74016 56.6541
775 1 7.7479 4.13104 60.3288
706 1 12.0249 5.90227 56.6004
777 1 14.7915 3.879 58.7185
708 1 18.4039 5.98165 56.0699
779 1 21.2523 3.36852 58.3834
710 1 23.6408 5.14435 55.6149
781 1 27.0023 2.84882 57.8093
712 1 28.5353 5.21148 55.2061
756 1 34.0842 19.413 54.3703
704 1 5.92622 5.79679 56.2835
793 1 21.317 8.22479 57.8855
795 1 27.6882 7.62841 58.3765
726 1 29.5696 9.94847 55.1754
797 1 31.8626 6.66146 57.2348
716 1 1.03987 10.585 56.0256
718 1 6.03811 10.3323 57.3247
720 1 11.6584 10.3123 56.7622
722 1 18.4665 10.6851 56.0815
807 1 21.3439 12.5199 58.3006
724 1 23.994 10.0549 55.2943
809 1 27.0002 12.2676 58.2839
811 1 32.4849 12.9901 57.4126
1085 1 17.2638 13.3693 76.881
732 1 6.13562 15.0068 56.8826
734 1 11.8091 15.12 56.001
805 1 15.173 12.8462 58.4442
736 1 18.5051 15.071 55.1344
738 1 24.4097 14.7519 55.3782
740 1 29.6182 13.8298 54.8191
1117 1 26.9797 22.4802 75.6211
746 1 6.05952 19.9093 56.4864
748 1 12.734 19.3629 56.0815
819 1 15.335 17.141 58.0335
821 1 21.487 17.3709 57.8139
752 1 24.6049 19.473 56.0516
823 1 27.4816 17.0424 56.9847
825 1 31.6825 17.7046 58.0087
831 1 9.64765 22.1403 57.7755
833 1 15.3547 21.8952 57.6259
750 1 19.0788 19.3422 55.7629
835 1 21.5316 21.7448 57.1194
837 1 27.3195 22.9641 57.8916
839 1 31.9648 22.1177 57.6637
760 1 5.94648 24.1002 55.9536
1061 1 26.7212 2.63859 77.1038
762 1 12.6993 24.2608 55.7886
2177 1 15.9065 26.3901 58.0434
764 1 18.0551 23.9634 55.1309
766 1 23.8261 24.6121 55.1431
773 1 3.44879 3.08568 59.5762
772 1 0.952354 5.24717 61.9864
776 1 12.3717 5.78757 61.3556
849 1 22.1821 3.75694 63.1746
782 1 29.4836 4.5764 60.4245
787 1 3.16624 8.19086 59.2421
774 1 6.08719 7.01524 62.1449
789 1 9.06811 8.04755 58.8698
791 1 15.2713 8.13369 58.5649
778 1 18.7008 5.8817 60.6823
780 1 24.3057 5.75137 60.2223
867 1 32.2357 7.45425 62.4175
1053 1 6.96559 2.34485 76.3914
788 1 6.48201 10.6853 61.4262
790 1 12.3533 10.2751 61.3449
792 1 18.1272 10.5259 61.0195
794 1 24.133 10.8726 60.4164
796 1 29.6703 10.4065 60.3113
801 1 3.49759 12.9028 60.1648
1046 1 24.2761 24.6115 73.4463
802 1 6.42591 15.4344 61.5533
803 1 9.12087 13.0305 59.2876
804 1 12.6947 14.6632 60.5677
806 1 18.2755 15.2187 60.5054
808 1 24.5272 15.5756 59.8644
810 1 29.4939 15.6964 60.3984
815 1 3.04288 17.226 59.3981
817 1 9.28897 17.3713 58.5518
820 1 18.5018 19.6372 59.7513
891 1 21.9076 17.7104 62.431
822 1 24.6388 20.253 60.0946
829 1 3.7538 22.0833 58.5973
816 1 6.91477 19.7154 60.659
818 1 12.6824 19.9852 60.6379
905 1 21.6924 22.5017 61.9179
824 1 29.2935 19.5836 60.4979
909 1 33.0562 22.3065 61.9384
830 1 6.72127 24.2933 60.5282
832 1 12.4028 24.0753 60.7527
834 1 18.7774 24.3341 59.6536
836 1 23.7938 24.7767 59.2465
838 1 29.8596 24.9229 60.1205
842 1 2.0189 5.29931 65.6788
843 1 4.82703 2.60535 63.3987
845 1 10.0776 4.04426 63.9646
847 1 15.6959 3.2238 63.3852
848 1 19.0079 5.34412 65.4448
850 1 25.1077 5.32256 64.9415
851 1 26.7984 2.48861 62.5194
853 1 33.3182 2.85783 62.2471
852 1 30.5101 3.8627 64.8998
857 1 3.4034 8.66677 64.4538
844 1 6.56735 5.89859 66.5885
859 1 9.34054 8.1168 63.6788
846 1 12.8493 6.51161 65.4049
861 1 16.1911 7.73657 63.1512
863 1 21.973 8.21297 62.4537
865 1 27.6668 7.11546 63.0128
858 1 6.66063 10.5756 66.0913
860 1 13.3407 10.4516 65.6064
862 1 19.1205 10.4671 65.5549
877 1 21.8803 13.0515 62.8819
864 1 24.8294 9.83954 64.7308
879 1 26.691 12.8409 62.932
866 1 29.7407 10.6844 64.849
881 1 33.0463 12.9543 62.1807
871 1 3.16123 12.8662 63.9325
873 1 10.1409 13.2936 63.5505
874 1 12.7885 15.2374 65.4783
875 1 15.4855 12.8168 63.6439
876 1 18.9835 15.3147 65.1769
878 1 23.77 15.7007 65.272
880 1 30.1492 15.1922 65.0452
885 1 3.82253 17.4258 63.7221
887 1 10.3556 17.2287 63.0355
889 1 15.7998 17.3812 62.891
893 1 26.6822 17.787 63.1921
895 1 33.3007 17.5763 62.1758
899 1 3.94738 22.2303 63.2984
886 1 7.15778 19.4947 65.136
901 1 9.71426 21.3076 62.8567
888 1 13.289 19.8074 65.2691
903 1 16.2315 22.0937 62.686
890 1 19.5597 19.5623 64.7164
907 1 26.3624 22.692 62.4646
892 1 23.9531 20.4686 65.8003
894 1 30.6703 19.9299 64.7878
900 1 7.5713 24.096 65.5731
902 1 12.7767 23.8254 65.3117
2247 1 15.9989 26.2818 63.0493
904 1 19.1256 24.9272 64.9748
906 1 23.7886 24.9986 64.8264
908 1 29.7871 24.5919 64.1819
730 1 1.46904 15.0682 56.6207
915 1 10.2919 3.45115 67.8992
917 1 15.8652 3.21155 67.6353
918 1 19.415 5.43411 69.8841
2107 1 15.4384 25.9544 53.4011
920 1 24.4116 5.14597 69.4505
922 1 30.3176 4.08357 69.4755
1048 1 30.2748 25.2006 74.0072
927 1 3.11454 8.45681 68.6034
929 1 10.0194 8.33091 68.2428
931 1 16.5936 7.8474 67.6878
933 1 22.2239 7.59563 67.7474
935 1 28.3484 6.68721 67.5672
937 1 32.205 7.78186 66.7937
928 1 6.84057 10.356 70.9121
947 1 22.3785 12.2396 67.5063
949 1 26.7566 13.2311 67.2524
951 1 33.4038 12.4448 67.3613
2245 1 10.205 26.6507 62.6114
941 1 4.5772 13.0324 68.5457
872 1 7.1656 15.2396 65.9466
943 1 10.2436 12.7488 68.2816
944 1 13.567 15.8387 69.549
945 1 16.3244 12.4488 67.5425
950 1 30.9302 14.7859 69.0428
955 1 4.6996 17.7182 68.2055
957 1 10.1275 17.328 67.7202
959 1 16.6929 17.2473 67.525
961 1 21.8742 17.7406 67.9587
963 1 27.5084 17.6432 67.2226
965 1 33.3147 17.8068 67.4231
744 1 1.28488 19.6999 55.7369
969 1 4.50149 22.114 67.8142
971 1 10.1988 21.9509 67.7709
973 1 16.194 22.1289 66.6541
960 1 18.766 20.127 68.9528
975 1 21.0415 22.3614 67.2525
977 1 27.6286 22.8761 67.0289
964 1 30.3309 20.4631 69.702
979 1 32.9212 23.0558 66.6869
976 1 24.5775 24.9434 68.784
978 1 30.3772 24.9808 68.9022
912 1 3.07137 5.33638 71.0173
1113 1 16.0732 23.7645 76.8838
985 1 11.063 3.59199 71.9122
987 1 15.8522 2.72462 72.1219
870 1 0.967395 15.8584 66.2495
997 1 4.31099 8.5301 73.5046
914 1 7.17607 5.54105 71.07
999 1 11.2735 7.42795 72.8929
916 1 13.8425 5.94114 69.6457
1001 1 17.2452 7.54158 72.1037
1003 1 22.574 8.07543 72.5355
1005 1 28.565 6.64176 71.5573
1007 1 32.6704 7.43222 71.6542
926 1 1.02427 11.7962 71.1786
1011 1 4.20982 13.2064 73.2018
930 1 13.4209 9.99079 70.2153
932 1 20.0786 9.97857 70.2029
1017 1 23.0171 12.1259 71.9627
934 1 25.4801 9.67604 69.4341
936 1 30.1887 10.4008 69.4762
1021 1 33.2523 12.0753 71.9397
942 1 7.33066 15.3767 70.6348
1013 1 10.6969 12.734 72.6663
1015 1 16.7061 12.8671 71.8174
946 1 19.8084 14.5578 69.9547
948 1 24.3431 15.8004 69.8418
1019 1 27.5915 13.2517 72.1806
1025 1 4.74118 17.4986 72.7866
1027 1 11.1928 17.3458 72.6593
1029 1 17.331 18.0838 72.1478
1031 1 21.2013 18.3712 72.4168
1033 1 28.0217 17.0876 71.982
1035 1 32.5632 17.2398 71.5228
913 1 5.30324 2.44471 67.9005
1039 1 4.93271 21.5057 72.5536
956 1 8.01202 19.8665 70.6027
1041 1 11.6276 22.1349 71.9768
958 1 14.0331 19.8678 70.0083
1043 1 16.9219 22.7912 72.3624
962 1 24.5241 20.5219 69.5942
1049 1 32.7295 22.93 71.5804
968 1 1.77267 24.4242 70.9617
970 1 7.43311 24.1788 69.6489
972 1 13.8635 24.3305 69.9521
974 1 18.0574 24.9858 69.4886
1045 1 21.5021 22.6877 71.8321
1047 1 27.3413 22.6008 71.6333
982 1 3.23182 4.44025 74.9575
898 1 1.42883 24.5289 66.3862
728 1 34.2759 9.713 54.8473
1057 1 16.1066 2.44917 76.542
988 1 19.7937 4.74489 74.443
1059 1 22.7161 3.21628 76.8587
990 1 25.2825 5.47228 74.5635
992 1 29.9369 4.64939 74.232
1055 1 11.3636 4.01947 76.5397
1069 1 11.2052 8.24291 77.0062
984 1 7.73744 5.44218 74.847
986 1 14.3754 5.4243 74.683
1071 1 17.2729 7.00868 76.7264
1042 1 13.1761 26.0271 74.1129
1075 1 28.2542 7.45469 76.3433
1077 1 32.8686 7.50581 76.1827
996 1 1.57708 10.8872 75.7328
2175 1 9.48726 26.3418 57.7085
998 1 8.17225 10.9387 74.9177
1000 1 14.8666 9.84103 74.0555
1002 1 19.1552 10.7878 74.4189
1087 1 23.0207 12.4478 76.577
1004 1 25.9619 10.1032 73.6548
1006 1 29.7916 10.3374 74.1942
1010 1 2.06554 15.7083 75.4644
1012 1 8.29978 15.7377 75.2695
1083 1 11.5064 12.2777 76.5212
1014 1 13.9586 15.2338 74.1387
800 1 0.889458 15.532 62.0812
1016 1 20.103 14.94 74.385
1089 1 27.4306 13.0344 76.7202
1020 1 30.6125 15.0042 74.0926
1091 1 33.3137 12.6989 77.1186
1024 1 2.2534 20.4184 75.5375
1097 1 11.5731 18.6992 76.2181
2113 1 32.3077 26.4422 51.3928
1101 1 22.2649 18.531 76.6168
1018 1 24.5528 15.7577 74.59