ITEM: TIMESTEP
131000
ITEM: NUMBER OF ATOMS
16000
ITEM: BOX BOUNDS pp pp pp
3.8174363921903165e-01 1.0181825636078443e+02
5.7873314668283484e+00 9.6412668533171342e+01
-5.3023142814112276e+00 1.0750231428141089e+02
ITEM: ATOMS id type x y z
291 1 24.7869 5.99189 18.9154
62 1 16.3694 25.9391 -5.20277
6 1 15.1497 7.47843 -4.91632
8 1 19.6431 7.56382 -4.29866
10 1 24.1124 8.04693 -3.17263
12 1 28.8616 7.97898 -3.4218
14 1 33.3226 8.65156 -2.09816
85 1 3.36867 10.3993 -3.00358
87 1 8.06091 10.5326 -2.51796
217 1 15.9216 6.02725 11.4787
89 1 12.4082 9.94385 -2.52387
22 1 19.9603 12.5065 -4.46925
24 1 23.8524 12.3219 -3.49828
26 1 28.4717 12.4861 -2.80109
28 1 33.1388 12.5729 -2.3829
99 1 3.33991 15.2152 -3.08266
101 1 7.8228 14.8172 -2.02497
103 1 12.3914 15.269 -1.49142
36 1 19.511 16.5699 -4.44192
113 1 3.47431 18.9567 -3.28079
367 1 6.29706 10.2651 22.4632
115 1 8.0673 19.445 -2.81866
117 1 12.8026 19.0929 -1.90749
119 1 17.4099 19.132 -1.38801
38 1 23.621 16.9844 -3.51156
40 1 28.3444 16.8064 -3.04053
42 1 33.182 17.0472 -2.11058
127 1 3.40233 23.9558 -3.66016
129 1 8.67452 23.6696 -2.90963
48 1 15.3888 21.2675 -5.16016
50 1 20.1162 21.1214 -4.78483
52 1 23.9318 21.5872 -4.09124
54 1 27.8804 21.2381 -2.24904
56 1 32.9047 21.1892 -2.2142
10943 1 0.625563 8.25162 5.97961
10930 1 0.827276 26.6816 -0.778819
83 1 31.0493 5.84258 0.379974
1475 1 13.2947 28.0301 -2.33018
64 1 20.2837 25.4194 -4.62889
66 1 24.3919 25.7539 -3.6643
68 1 29.0062 25.9039 -2.52739
70 1 32.9693 25.7938 -2.79872
10878 1 0.644924 7.8504 -0.180225
72 1 5.44765 8.0735 0.320332
74 1 9.982 8.08739 0.738984
76 1 14.6376 7.88111 1.14309
10891 1 0.745134 12.3472 -0.546472
86 1 5.34157 12.9042 0.297669
88 1 9.95035 12.3062 0.90659
90 1 14.6724 12.6408 1.6015
91 1 17.031 10.4475 -1.68283
93 1 21.2393 10.1621 -0.568866
95 1 25.8618 10.156 0.00137636
97 1 30.377 9.91282 0.529413
18 1 10.9359 13.1648 -5.27646
102 1 9.48142 17.6144 0.171836
104 1 14.8098 16.5191 1.36293
105 1 17.2158 14.3846 -0.996361
107 1 21.6837 14.4573 -0.729038
109 1 25.9183 15.3338 -0.443311
111 1 30.7901 14.9785 0.393853
100 1 4.85884 17.0022 0.751833
121 1 21.4996 19.2479 -1.05726
123 1 25.9612 19.0726 0.50327
125 1 30.1084 19.6328 0.381112
10917 1 1.5011 22.2103 0.0793518
114 1 5.45692 21.6224 -0.0149219
116 1 10.5817 21.3473 0.714436
131 1 13.1746 24.0014 -2.1237
118 1 15.166 21.2923 1.14945
133 1 17.78 23.1613 -1.59658
135 1 22.4113 23.8192 -1.04963
120 1 19.4603 21.5601 2.04612
137 1 26.0814 23.7595 0.141366
139 1 30.4013 23.8729 0.541048
10904 1 0.785752 17.5215 0.223624
128 1 5.29314 26.0592 -0.369885
130 1 10.2285 26.0442 0.79496
132 1 14.8785 26.0928 1.68838
1477 1 17.8544 27.9729 -1.32548
342 1 12.6457 26.3477 20.2391
147 1 16.2348 5.78222 5.11146
78 1 19.3437 7.59529 2.09229
80 1 23.9788 8.05498 2.62934
82 1 28.2975 8.45093 3.43422
84 1 32.4864 7.98458 4.0176
155 1 3.43022 10.2174 2.66398
157 1 7.21588 10.532 3.78866
159 1 11.6373 10.164 4.67385
161 1 16.3491 9.85363 5.05668
92 1 19.0623 12.3281 2.06933
94 1 23.8894 12.5952 2.30327
96 1 28.2102 13.1584 2.95445
98 1 32.568 12.7317 3.82113
169 1 2.17768 14.3616 3.50821
171 1 7.59304 15.1971 3.71488
173 1 11.7606 14.8269 4.36788
106 1 19.2465 17.057 2.37094
175 1 16.2385 15.6396 4.92055
110 1 27.8285 17.1823 3.48664
112 1 32.5608 17.4562 3.93777
183 1 2.74093 20.1901 3.37241
185 1 7.36144 19.4729 3.70615
187 1 11.8826 19.0539 3.9337
189 1 16.1704 19.4682 4.28321
108 1 23.176 16.9491 2.75269
197 1 2.9204 24.0553 2.97179
199 1 7.71217 24.1182 3.10593
201 1 12.2445 23.5365 3.77571
203 1 16.7307 23.8481 5.21904
122 1 23.0852 21.5262 3.00554
124 1 27.7594 21.7206 4.02658
126 1 31.9559 21.7996 4.08442
134 1 18.9574 26.1445 1.85965
5809 1 34.0084 10.7435 13.8811
136 1 23.6978 25.4409 2.52034
138 1 28.0206 25.7985 3.98147
140 1 32.6298 26.3861 4.81207
142 1 5.243 7.96641 6.10097
144 1 9.69101 7.98202 6.98028
146 1 14.1063 8.15034 7.85293
148 1 18.7678 8.3566 8.34997
150 1 23.2104 8.06866 8.73228
1551 1 25.3262 28.1313 5.90522
283 1 6.50591 6.10184 16.3205
156 1 5.19312 12.2979 6.56209
158 1 9.48639 13.1223 7.41032
160 1 13.9254 12.7585 7.81762
163 1 20.8454 10.3351 5.19674
165 1 25.616 10.2632 5.27258
167 1 30.8537 10.398 6.89805
34 1 15.053 16.8198 -4.43073
170 1 4.77456 17.1934 5.97573
174 1 14.0818 17.3605 7.69158
177 1 20.8935 14.8542 5.15295
179 1 25.49 14.7228 6.29491
181 1 30.0958 15.0307 6.9888
348 1 26.0067 26.3058 22.4257
346 1 21.3878 26.362 21.8823
172 1 9.41018 17.1496 7.32288
176 1 18.5019 17.1059 8.5791
191 1 20.3365 19.4552 6.0501
193 1 25.9736 19.4158 6.31745
195 1 30.4975 19.123 6.94242
73 1 7.73834 5.89552 -1.88227
184 1 4.96783 21.5928 6.20837
186 1 9.37437 21.895 6.77141
188 1 14.2691 21.8823 7.72775
190 1 18.3275 21.6165 8.99042
205 1 21.434 24.1321 5.36157
207 1 25.8019 24.0153 6.52342
209 1 30.2361 23.8786 7.2261
11008 1 0.402637 7.84105 12.233
198 1 4.84078 26.2954 6.38986
200 1 9.66338 25.8986 6.96224
202 1 13.9087 26.4085 7.35458
204 1 18.4258 26.3553 8.49166
289 1 19.692 6.1178 18.3173
77 1 17.3196 5.93675 -1.27284
1693 1 29.089 28.3292 19.17
340 1 7.99612 26.4953 19.4896
5848 1 33.5423 23.5638 14.3106
152 1 27.7248 7.49353 10.4485
154 1 32.2554 7.80649 10.4338
225 1 2.68173 9.75509 9.58634
227 1 7.27385 9.96683 10.3716
229 1 11.6743 10.4866 10.4652
162 1 18.3748 13.2877 8.71347
231 1 16.2046 10.7568 10.9292
164 1 22.8516 12.5876 8.08465
235 1 25.0728 10.2539 12.2087
166 1 27.3035 11.8965 9.5541
168 1 31.6502 12.6205 10.131
239 1 2.52063 14.5243 8.59246
241 1 6.92086 14.3473 10.4266
243 1 11.3765 15.3828 11.0773
245 1 16.0335 14.8007 11.3897
178 1 23.0142 17.222 8.64271
182 1 32.2648 17.1514 10.2897
253 1 2.26719 19.2544 9.33804
255 1 6.9546 19.0846 9.68409
257 1 11.3266 19.4252 11.0697
259 1 15.7668 19.6363 11.1544
180 1 27.7318 17.2644 9.17321
267 1 2.66619 23.8419 9.45099
269 1 6.6431 23.8373 9.80677
271 1 11.4859 23.4885 10.4701
273 1 16.0052 24.2311 11.0117
192 1 23.0764 21.7284 9.11636
275 1 20.5762 24.046 11.7913
194 1 27.4647 21.103 9.81967
196 1 32.1059 20.9719 10.3786
1691 1 24.2688 28.3123 18.7013
1541 1 3.29396 28.0772 3.02865
381 1 5.83562 14.7627 22.5645
206 1 22.6418 26.4349 9.18987
208 1 27.1068 25.9877 10.1288
210 1 31.7236 25.7128 10.5993
212 1 4.4484 8.10385 13.5098
214 1 9.19097 8.18871 13.2599
216 1 13.2683 7.70091 14.2162
218 1 17.8455 7.9039 14.6307
220 1 22.569 8.65909 15.5687
5913 1 33.2584 23.5989 20.7197
295 1 2.15464 10.4466 15.7887
226 1 4.41319 12.5826 12.465
228 1 9.18353 11.7903 13.1889
230 1 13.2402 12.4707 13.9691
232 1 17.8663 12.3236 14.9877
233 1 20.8042 10.6633 11.6523
237 1 29.7539 10.375 12.8316
211 1 2.55173 6.00336 9.68214
309 1 1.99305 14.9251 15.5789
240 1 4.32826 16.8241 13.0009
244 1 13.359 17.1564 14.2921
247 1 20.4716 14.7426 11.6815
248 1 22.4984 17.0001 15.118
249 1 25.0213 14.9703 12.148
251 1 29.4816 14.6198 12.6357
5822 1 34.0185 14.814 13.4366
323 1 1.68434 19.5391 15.9067
242 1 8.68646 17.1109 13.7543
246 1 18.2089 17.0215 14.342
261 1 20.7585 19.5749 12.1107
263 1 25.4276 18.8016 11.9583
265 1 29.2137 18.797 13.1863
344 1 17.0515 26.4557 20.4821
254 1 4.06143 21.6193 12.346
256 1 8.62913 21.5769 13.2871
258 1 13.1722 21.8005 13.5626
260 1 17.7064 21.8563 14.8284
262 1 22.4628 21.7016 15.096
277 1 25.0073 23.419 12.6517
279 1 29.4757 23.4014 13.6447
5835 1 33.7029 19.4058 14.3072
1623 1 29.3321 27.988 13.007
268 1 3.98578 26.4345 12.6878
270 1 8.69041 26.0797 13.2327
272 1 13.0472 26.1727 13.789
274 1 17.8121 26.5713 14.7177
276 1 22.5821 26.3686 15.5355
282 1 3.8436 8.2801 19.2535
349 1 28.6917 23.8229 19.4742
222 1 27.3901 8.46443 15.9588
224 1 31.8292 7.75616 16.666
296 1 4.09793 12.8597 19.3396
297 1 6.746 10.1296 16.7622
299 1 11.3205 10.851 17.1642
301 1 15.3176 10.1935 17.1245
234 1 22.241 12.8321 15.3539
303 1 19.3616 10.2251 18.0533
305 1 24.826 10.6583 18.4834
236 1 26.8026 12.7782 15.6895
238 1 31.5164 12.4901 16.5144
310 1 4.13277 17.1109 19.0531
311 1 6.57042 14.0358 16.2665
313 1 10.6308 14.8935 17.3894
315 1 15.4725 14.5548 17.2459
317 1 19.9209 15.3833 18.2552
319 1 24.2551 14.8608 19.1064
250 1 27.0619 16.8766 15.8067
325 1 6.43621 19.8091 16.0476
327 1 10.9194 19.1495 16.744
329 1 14.9644 19.17 17.0006
331 1 19.692 19.8713 17.7338
252 1 31.0994 16.8026 16.9454
337 1 2.3516 23.357 15.7801
324 1 3.82836 21.7316 19.9033
339 1 5.98439 24.038 16.0913
341 1 10.459 23.8465 16.9834
343 1 15.1963 23.8393 17.0526
345 1 20.3683 24.2513 17.7586
347 1 24.0904 23.9146 18.8475
264 1 26.6564 21.7782 15.665
266 1 30.935 21.342 17.1791
338 1 3.61962 26.3112 19.4765
1545 1 11.8028 28.3196 3.68365
1479 1 21.6246 27.9568 -0.581907
334 1 25.8325 22.2224 22.0371
395 1 5.93445 19.4433 22.6462
332 1 21.3202 21.778 21.4375
278 1 27.0019 25.8257 15.7532
280 1 31.6039 26.1775 16.7762
284 1 8.41944 7.72273 19.5301
286 1 12.8493 7.90693 20.3874
288 1 17.3581 8.50489 21.0216
290 1 21.9116 8.19095 21.7955
1613 1 7.41814 28.2425 9.79675
292 1 26.6828 8.01894 21.7931
353 1 5.77791 6.05922 22.7492
365 1 1.60053 10.3274 22.0258
10956 1 0.560076 12.2759 6.04757
298 1 8.41625 12.7989 20.2781
300 1 12.5431 11.9647 20.606
302 1 17.4562 13.1372 21.2442
304 1 22.2129 12.4911 21.442
306 1 26.2382 12.6137 22.5328
307 1 29.2505 10.4317 19.7223
5874 1 33.9612 10.1957 20.1545
5796 1 34.0397 6.04539 13.6913
379 1 0.862723 14.7973 22.0193
143 1 7.76677 5.91689 3.43171
314 1 12.8212 16.7855 20.1241
316 1 17.2494 17.349 20.6534
318 1 21.8237 17.085 21.5107
1483 1 30.1969 28.3484 0.603071
321 1 28.7315 14.6877 19.3177
5887 1 33.0491 14.6684 20.0563
393 1 1.02027 19.3925 21.9271
312 1 8.16516 17.2308 19.2362
333 1 24.3548 19.1199 18.8009
335 1 28.2006 19.3875 19.5795
5900 1 33.5012 18.9879 20.0065
407 1 1.42218 24.0881 21.8698
409 1 6.12514 23.796 22.3717
326 1 7.46669 21.7533 19.7415
328 1 12.4399 21.5644 20.2671
330 1 16.484 22.0948 20.5852
293 1 29.3049 5.94624 19.1136
7096 1 33.6416 28.3618 14.0659
1615 1 11.7439 28.3077 10.5067
336 1 30.398 21.1902 22.8678
322 1 30.4626 16.8596 22.7072
308 1 30.8244 12.29 22.7849
294 1 31.1682 7.81481 22.7134
20 1 15.4031 12.1703 -5.14639
4 1 10.4081 8.00641 -5.2817
55 1 30.5873 19.3164 -5.19862
352 1 3.62252 8.53153 25.8493
354 1 7.64116 7.39151 25.8684
397 1 9.81018 19.3538 23.0416
632 1 0.431786 8.21388 50.0904
366 1 3.26204 12.7075 25.4337
368 1 7.67039 12.969 25.7732
369 1 10.2674 10.2226 23.28
371 1 14.8748 10.3681 23.8232
373 1 19.4547 10.3311 24.367
375 1 24.305 10.5731 25.0936
377 1 28.2326 10.0992 25.9092
380 1 3.08679 17.1448 25.4517
382 1 7.70775 16.9363 26.3899
383 1 10.5082 15.3037 23.4026
385 1 14.6849 14.7056 23.5245
387 1 19.3615 14.9972 24.1409
389 1 24.0588 14.5761 25.4183
391 1 28.0091 14.7264 26.1798
1759 1 18.794 28.4379 24.0181
5991 1 32.0982 5.80106 33.0509
449 1 0.457695 14.3793 28.4733
399 1 14.3742 19.4405 23.831
401 1 19.4494 19.5565 24.3528
403 1 23.6521 19.2774 24.7614
405 1 27.7651 19.4592 25.4589
5965 1 32.3915 18.8837 26.4906
394 1 3.47791 21.8719 25.3872
396 1 7.71866 21.6039 26.1421
6134 1 34.0501 10.8518 41.7424
413 1 14.4451 23.9798 23.5776
415 1 18.6167 24.0609 24.4013
417 1 22.9627 23.729 25.4974
419 1 27.4429 23.6625 25.4693
359 1 19.6592 5.94324 24.2431
408 1 3.09539 26.5069 24.8939
410 1 7.99622 26.2072 26.0218
533 1 0.61377 19.491 34.094
423 1 5.54255 5.77251 29.6325
505 1 0.383867 10.8527 35.1667
5979 1 33.8298 25.619 29.0311
503 1 27.017 5.91251 38.3541
356 1 12.3911 7.99961 27.0049
358 1 16.9695 7.87448 27.5724
360 1 21.4989 7.76474 27.6356
362 1 25.2151 8.19579 28.9764
364 1 29.6729 7.48726 29.5079
411 1 9.974 24.0584 22.9842
437 1 5.21756 10.2673 28.6272
439 1 9.39028 10.5131 29.3932
370 1 12.2221 12.5069 26.8371
441 1 14.0371 10.0753 30.0724
372 1 16.7072 12.4578 27.1213
374 1 21.2863 12.431 27.6623
376 1 25.5746 12.0856 29.103
378 1 30.4218 12.2245 29.0414
5939 1 32.4491 10.1036 26.2496
643 1 29.7342 5.93237 47.5381
451 1 5.20098 14.8781 29.0951
384 1 11.687 17.3819 26.5098
386 1 16.3853 17.2174 26.6438
388 1 20.8348 17.1816 27.9223
5952 1 33.0688 14.7593 26.0789
465 1 4.83365 19.3271 29.1141
467 1 9.29849 19.6906 29.9258
469 1 13.877 19.1448 30.3349
390 1 25.024 16.8954 29.0825
392 1 29.7546 16.9077 28.8767
477 1 1.10393 24.2724 28.425
479 1 5.1091 23.995 28.37
481 1 9.62864 24.3344 29.8182
398 1 11.7839 21.5859 26.4807
483 1 14.3551 23.7544 29.9426
400 1 16.0351 21.3602 26.9343
402 1 20.83 21.976 28.225
404 1 25.307 21.3436 28.803
406 1 30.0263 21.5986 28.851
5978 1 31.9021 24.0735 26.2482
412 1 11.9338 26.2805 26.7234
1827 1 13.8528 28.3981 30.4069
414 1 16.27 25.9359 27.3473
416 1 20.4906 26.2542 28.3175
418 1 25.1914 25.9912 28.7232
420 1 29.5582 25.9099 29.0584
422 1 2.33698 8.47571 31.6593
424 1 6.75658 8.27757 32.5836
426 1 11.4432 7.86662 33.3384
698 1 27.3087 25.958 49.9337
436 1 2.4607 13.1365 32.4192
438 1 7.36038 12.2387 32.3277
440 1 11.3358 12.7169 32.8696
443 1 18.5249 10.3208 30.5839
445 1 23.0298 11.0719 31.8484
447 1 27.6767 10.5221 32.0935
6004 1 32.3813 10.4087 33.4805
450 1 2.51416 17.163 31.5463
453 1 9.86387 14.7841 29.2324
455 1 14.1999 14.8104 29.9917
457 1 18.5987 14.6336 30.918
459 1 22.5225 15.2063 31.2919
461 1 27.2688 14.4881 31.9408
6017 1 31.8672 14.4543 32.0853
452 1 6.89522 16.2477 32.155
454 1 11.3519 17.4425 32.8653
471 1 18.6075 19.1838 30.4565
473 1 23.0541 19.2346 31.7034
475 1 27.6646 19.1006 32.1947
6030 1 31.7818 19.2038 32.4302
464 1 2.84253 21.9529 31.2202
466 1 6.91844 21.8816 32.5598
468 1 12.0896 22.0334 32.9929
485 1 18.4395 23.5438 30.5442
470 1 16.1991 21.6061 33.4985
487 1 22.7754 24.0432 31.1969
489 1 27.4522 23.7374 31.9686
6043 1 32.7249 23.2378 33.0192
478 1 2.95431 26.4652 31.8372
480 1 6.98259 26.4768 32.1006
482 1 11.5992 26.6188 33.1026
357 1 14.9246 5.72991 23.729
484 1 16.3707 25.9923 33.6834
2043 1 29.4054 28.3921 47.4685
633 1 3.51901 6.35591 47.8104
635 1 8.29374 5.85824 48.1764
509 1 8.64907 10.6124 36.0359
428 1 16.0182 7.97297 33.7357
430 1 20.2789 8.08754 34.2094
432 1 24.2969 8.3321 34.7696
434 1 30.2845 7.80429 35.8844
691 1 8.11569 23.8701 48.6407
507 1 4.32825 11.3048 35.2435
511 1 13.2139 10.6555 36.496
442 1 15.7576 12.556 33.6219
513 1 17.6243 10.8271 37.3674
444 1 20.3686 12.4289 34.6125
446 1 24.9079 13.1552 34.7284
448 1 29.6099 12.3319 35.5529
521 1 4.99993 15.0835 35.213
523 1 8.76336 15.0125 36.0127
525 1 13.5591 15.1831 36.1537
456 1 15.7708 17.3053 33.6425
527 1 18.0807 14.7484 37.1854
458 1 20.0043 17.1591 34.5227
460 1 24.4556 17.7788 35.2455
700 1 32.8677 26.4563 48.7054
535 1 4.65188 19.0756 35.2826
537 1 8.66597 20.2203 35.6386
539 1 13.3033 19.7121 36.8421
541 1 17.2713 19.4184 37.5802
462 1 29.6204 17.1789 35.0231
6095 1 33.0608 19.2409 37.0686
549 1 4.52614 23.8787 35.1458
551 1 9.02402 24.3292 35.9832
553 1 13.6292 24.1997 36.5733
472 1 21.0086 21.7105 33.7285
474 1 24.9962 22.0964 35.0013
476 1 29.2842 21.4146 35.6704
431 1 23.0439 6.02083 31.3683
686 1 32.3388 21.7479 48.3112
5926 1 32.7412 6.18807 25.974
565 1 8.237 6.28462 42.0741
486 1 20.4865 26.0089 33.9095
488 1 24.816 26.2775 34.8403
490 1 29.6358 25.8613 35.5232
492 1 1.79643 8.6159 38.0333
494 1 6.17738 8.28429 38.861
496 1 10.8412 8.07391 38.949
498 1 15.4117 7.82129 39.8915
500 1 20.1258 7.91268 40.3879
504 1 30.2086 8.3981 40.6757
506 1 1.86356 13.3707 38.1871
508 1 6.30441 12.6128 39.1967
510 1 11.152 12.5871 39.3324
512 1 15.3311 12.6005 40.107
515 1 22.3481 10.7282 37.7398
514 1 19.9066 12.2731 41.0609
517 1 27.5477 10.4892 38.3325
6069 1 33.1124 11.089 37.3488
518 1 30.0546 12.9807 40.293
520 1 1.47719 18.2102 37.8299
522 1 6.90117 17.3708 38.9486
524 1 11.183 16.734 39.8909
526 1 15.2681 17.0735 40.1852
528 1 19.6247 16.6488 40.9864
529 1 22.0211 14.431 37.4396
531 1 26.9149 14.8597 38.2074
6082 1 32.8988 15.2205 37.3038
543 1 21.5899 19.1733 37.7017
545 1 26.9026 18.9104 38.4157
532 1 30.4053 17.1398 39.7393
534 1 2.62277 22.0409 37.8573
536 1 6.77255 22.0269 38.4566
538 1 10.8786 21.7994 39.4207
540 1 15.5994 21.9556 40.1283
555 1 18.394 23.7377 37.1638
557 1 22.3517 23.9468 37.7749
559 1 26.3563 23.6787 38.4403
6108 1 33.1715 23.3821 37.0914
546 1 30.2478 21.6674 39.981
548 1 2.57116 26.3793 37.7051
550 1 6.30569 26.5008 38.3235
552 1 10.5758 26.597 39.4811
554 1 15.9181 26.744 39.9017
556 1 20.4558 25.4787 40.8859
684 1 26.1593 21.4753 49.9315
7226 1 32.8854 28.3503 26.0183
560 1 30.8759 26.0715 40.1542
1829 1 18.2835 28.3117 30.7613
567 1 12.9509 5.95029 42.6114
502 1 24.6752 8.39624 41.2405
577 1 3.70128 11.0265 41.6147
579 1 9.1499 10.1441 42.0016
581 1 13.4025 10.1413 42.9467
583 1 17.7821 9.91506 43.3231
585 1 22.1796 10.6736 43.8167
516 1 24.5966 12.9644 40.9603
587 1 27.6204 10.4515 43.1757
7356 1 33.5232 28.0235 37.0171
591 1 4.13805 15.7474 41.7557
593 1 8.64231 14.6934 42.4048
595 1 13.2491 14.5254 43.0273
597 1 17.8207 14.5228 43.3862
599 1 22.3994 14.7196 44.476
530 1 24.0207 17.4766 40.4965
601 1 27.7578 14.7753 42.7819
605 1 3.89831 20.4232 41.145
607 1 8.32866 19.4192 42.3015
609 1 12.9009 19.2011 42.8209
611 1 17.4876 19.2385 43.5653
613 1 21.8973 19.2442 44.3615
615 1 28.0487 19.3337 42.7791
604 1 1.61828 21.7885 44.2287
619 1 4.13934 24.6248 41.4775
621 1 8.8075 24.2167 42.1214
623 1 13.3535 24.6922 42.2841
625 1 17.9584 23.5471 42.9444
542 1 20.0534 21.3159 40.7326
627 1 21.6286 24.0663 44.2373
544 1 24.2465 21.5203 41.1227
629 1 28.2969 24.0129 43.1128
641 1 23.0437 6.25598 48.6062
697 1 23.2713 23.8267 49.242
1969 1 17.5081 28.4056 43.3164
674 1 0.739766 21.6166 50.5805
558 1 24.9206 25.9736 41.1821
1965 1 7.7786 28.3477 41.6852
562 1 1.62677 8.04486 44.0935
564 1 6.00181 8.16361 44.4678
566 1 10.2299 7.64891 45.333
568 1 14.9154 8.47655 46.3038
570 1 19.4881 8.35102 47.0349
572 1 25.8201 7.73074 45.785
574 1 31.9059 8.10493 44.9207
576 1 1.36407 12.6665 44.472
578 1 6.04334 12.922 45.1835
580 1 10.4571 11.9971 45.7814
582 1 14.8891 13.085 46.4902
584 1 19.475 12.7298 47.1374
586 1 25.8257 12.7019 45.9435
657 1 28.8102 10.5364 47.2924
588 1 31.0529 12.6644 44.6052
590 1 1.32294 17.4843 44.3119
592 1 6.38833 17.3847 44.6905
594 1 10.108 16.6165 45.6157
600 1 25.6648 17.2188 45.4013
671 1 29.1515 15.2253 47.5389
602 1 31.6975 16.8708 43.9476
596 1 14.4429 17.413 46.6223
598 1 19.0289 17.34 46.8067
685 1 29.3525 19.2938 47.2879
689 1 3.6114 24.1122 47.6084
606 1 6.33353 21.7993 44.6963
608 1 10.0552 21.5285 45.7304
610 1 14.9121 21.8749 45.7658
612 1 19.3489 22.0719 46.5275
614 1 25.6317 21.8678 45.5855
699 1 29.2301 23.6437 47.0632
616 1 31.6195 20.8167 44.407
618 1 2.25057 26.3729 44.3917
620 1 5.97138 26.282 45.3268
622 1 11.4695 25.1767 45.8675
624 1 15.2086 26.5727 45.9874
626 1 19.0256 26.1698 46.5091
628 1 25.5746 26.3482 46.1809
630 1 31.686 25.7362 44.5327
1901 1 22.6433 28.2068 37.9644
693 1 12.7086 23.4101 48.9534
695 1 16.9768 24.234 49.2373
672 1 33.3913 16.9796 48.2677
642 1 27.0462 8.57419 50.2915
644 1 32.7941 7.91953 49.4156
646 1 0.573268 12.8871 50.7429
647 1 3.09294 10.1382 47.6941
427 1 14.0993 5.9438 30.724
649 1 7.13173 9.54428 49.0424
651 1 11.8944 9.41782 48.4806
653 1 16.3675 10.8017 50.1413
655 1 22.777 10.2074 48.3194
656 1 26.6994 12.7376 50.7236
658 1 32.8311 12.6208 48.6363
660 1 1.19121 16.8591 50.4123
661 1 3.24867 14.9169 47.4843
663 1 7.47543 14.2158 48.8081
665 1 11.9236 14.1467 48.8997
667 1 16.6452 14.9947 49.8724
669 1 22.9115 15.0443 48.6284
670 1 26.2065 17.269 50.4798
675 1 3.23445 19.6067 47.0864
677 1 7.5754 19.3254 48.5439
679 1 12.3445 19.4669 48.7876
681 1 16.5049 19.5973 49.7232
683 1 22.7228 19.2112 48.0434
571 1 21.8525 5.86016 44.3443
1833 1 27.9438 28.3436 31.9207
501 1 22.673 5.99669 37.7012
639 1 16.4076 7.17535 50.5255
435 1 0.612987 9.65477 27.9348
563 1 4.07744 6.39156 41.5655
1761 1 24.1352 27.495 25.4448
6121 1 33.9307 6.33277 41.9203
7291 1 31.7181 27.5971 32.806
2039 1 16.7633 28.0496 50.0376
1899 1 18.0499 28.5032 37.211
350 1 30.0168 25.7471 23.1384
499 1 17.969 5.81616 37.5176
433 1 27.5679 5.85643 32.2755
493 1 4.56711 6.22942 35.1452
1823 1 5.43741 27.9238 28.2054
682 1 20.4076 21.8123 51.0234
688 1 0.965831 25.8257 50.9094
676 1 5.47309 21.5308 50.9341
320 1 26.3468 17.1143 22.9414
783 1 31.764 6.03347 56.4497
636 1 9.30277 8.0749 52.0151
638 1 13.4569 8.43982 52.4146
912 1 0.808304 7.80037 74.3819
1100 1 20.6486 22.1045 79.1312
711 1 23.9827 6.12267 52.9127
717 1 2.28229 10.3708 54.3323
650 1 9.78397 11.9578 52.004
652 1 14.4263 12.992 52.7637
723 1 17.9761 10.3777 54.6375
654 1 20.3208 12.7159 51.4163
725 1 24.1067 10.3813 53.0089
726 1 27.4367 12.2037 54.5374
727 1 30.2774 10.1167 51.4961
728 1 33.7595 12.3906 53.3284
731 1 2.83568 14.9911 54.3142
733 1 7.51977 15.321 54.2666
742 1 33.7734 17.1555 52.9242
664 1 9.81121 17.0454 51.7435
737 1 17.413 14.5911 54.4526
739 1 23.5992 15.2679 53.313
740 1 28.065 16.7866 54.2279
741 1 30.0405 14.8396 51.6848
745 1 2.71908 19.2327 54.0805
666 1 14.3611 17.797 52.9138
751 1 18.0412 19.2215 54.2694
1090 1 31.8796 17.2239 78.2629
753 1 23.5719 19.8088 52.5856
2183 1 30.9411 28.3085 56.0111
730 1 0.636464 17.2281 57.3047
759 1 2.96381 23.5796 54.318
843 1 1.37054 6.09295 67.0485
678 1 9.4573 21.6335 51.6688
680 1 13.8696 22.5735 52.3631
765 1 18.2827 23.8304 53.371
770 1 33.8616 25.8373 53.1701
767 1 24.2454 23.7424 53.0949
754 1 27.9013 20.9941 54.2395
847 1 14.0334 5.76314 64.1816
849 1 20.2978 6.32629 63.2154
692 1 10.9176 26.0673 51.8787
694 1 14.5778 26.5727 52.8277
917 1 15.0714 5.99761 68.3524
707 1 11.5541 6.57195 55.7065
768 1 27.3969 25.7784 54.7217
2247 1 14.1642 28.3373 63.9817
2317 1 15.1664 28.1122 68.5812
704 1 4.28483 8.26206 57.6515
706 1 8.44793 8.65378 58.3057
708 1 15.7084 7.90702 56.5258
710 1 21.9487 8.40236 55.3457
712 1 27.7612 7.54013 54.4426
2253 1 32.2981 28.2205 60.3685
2319 1 21.3061 28.1019 67.6376
718 1 4.78403 12.7014 57.4462
719 1 6.98867 11.2568 54.5919
721 1 11.5223 10.5373 55.4521
722 1 15.5913 12.1104 57.3135
724 1 21.6247 13.0403 55.7557
795 1 25.1218 10.0738 57.4312
797 1 31.1212 10.3895 55.4667
734 1 9.47905 17.6413 58.5143
735 1 11.3919 15.1028 54.9579
809 1 25.4615 14.6842 57.3855
811 1 31.1683 15.1469 56.1147
2313 1 3.01725 27.9429 71.021
747 1 7.16141 19.4749 54.8032
732 1 5.05367 16.7524 58.0216
749 1 11.6455 19.5364 55.0619
736 1 15.313 16.9164 56.8142
738 1 21.0862 17.0955 55.7413
823 1 25.3047 19.0357 56.9957
825 1 31.2193 18.9581 55.553
761 1 7.26101 24.1961 54.7736
746 1 4.96122 21.4368 57.722
748 1 9.14137 21.6207 57.4421
763 1 12.0068 23.9908 55.6557
750 1 15.7531 21.5904 56.5502
752 1 21.897 21.709 55.3529
837 1 25.5289 23.7397 57.4295
839 1 31.5434 23.6275 55.6391
2243 1 2.42384 28.5076 66.5085
760 1 4.82866 26.5428 57.4978
744 1 0.342961 21.3473 57.463
764 1 16.2254 26.0997 56.5955
766 1 21.9918 25.9425 55.2835
705 1 6.82262 6.06715 55.147
1091 1 34.0489 14.6909 76.2159
2177 1 13.2052 28.0829 59.0311
6537 1 33.7467 19.1769 69.0883
780 1 23.3379 7.77888 60.1648
782 1 28.9637 7.71247 58.862
787 1 2.00924 10.3449 60.1935
789 1 6.51452 10.543 61.3657
720 1 9.42638 13.4179 57.995
791 1 13.1228 10.2819 59.7213
793 1 19.5575 10.1812 58.9623
792 1 16.3733 12.6859 61.9494
794 1 22.7598 12.6609 60.3057
865 1 26.3632 9.70752 61.8131
796 1 29.2399 12.1112 58.817
867 1 32.4883 10.26 60.2702
801 1 2.05476 14.5032 60.6712
803 1 6.69436 14.4589 61.5632
805 1 12.6852 14.804 59.4748
807 1 18.8668 13.986 58.4658
881 1 32.4068 14.9137 60.4416
815 1 2.78339 19.6775 60.7289
817 1 7.26266 19.2965 61.152
819 1 12.9773 19.4353 59.5379
806 1 16.2921 16.8621 61.4016
821 1 19.069 18.7922 58.4458
808 1 22.6971 17.0607 60.2299
893 1 25.7754 19.0931 61.9794
810 1 28.5151 16.5694 58.8426
895 1 32.0798 18.929 60.1758
829 1 2.94147 23.9377 60.3435
831 1 7.31593 24.1978 60.9621
833 1 12.8515 23.8171 60.1772
835 1 19.1636 23.9019 58.3142
820 1 16.4446 21.515 61.1428
822 1 22.7033 21.4804 60.095
907 1 26.3687 23.2297 61.8986
824 1 29.1617 21.3293 58.7725
909 1 32.4034 23.6123 60.1449
1114 1 21.1962 25.8575 79.05
762 1 9.86849 26.0415 58.1727
834 1 16.797 26.3177 61.2572
836 1 23.3669 25.9912 59.7926
838 1 29.2068 25.9046 58.9915
774 1 3.57184 8.25226 64.1603
776 1 10.3473 8.06341 61.9585
778 1 16.6668 8.08381 61.0017
756 1 33.6753 21.3578 53.4572
850 1 23.7923 8.03783 64.3343
852 1 29.9386 8.00043 63.447
788 1 4.23531 12.3141 64.1375
790 1 10.2459 12.6109 62.5427
861 1 13.959 10.5694 63.9337
863 1 19.9739 10.3931 63.1863
864 1 23.7146 12.5784 64.6976
866 1 29.9711 12.2387 63.3215
937 1 33.7007 10.5646 65.0266
875 1 13.5802 15.2463 64.8126
877 1 20.3353 14.9751 62.9643
879 1 26.4672 14.4563 61.6432
878 1 23.5491 16.5804 64.9211
880 1 29.7 16.9937 63.2772
951 1 33.4375 14.8122 65.1015
802 1 4.12169 16.9575 63.881
804 1 10.153 17.2575 62.2689
887 1 8.23564 19.0959 65.314
889 1 13.6487 19.298 64.5545
891 1 19.9293 19.0819 63.0408
1033 1 33.5131 19.4729 64.5498
1118 1 31.868 26.3773 78.753
816 1 4.70771 21.6977 64.2982
818 1 10.792 21.6629 63.0086
903 1 13.7609 23.8633 64.2093
905 1 19.8268 23.7247 62.8568
892 1 23.3812 21.6178 64.7875
894 1 29.5202 21.2498 63.3778
964 1 33.2347 23.877 65.0899
830 1 4.72914 25.8543 63.3483
832 1 10.7127 26.4322 62.8458
1077 1 33.6448 10.3609 76.0331
906 1 23.5234 26.1352 64.3646
908 1 30.0755 25.8479 63.2227
777 1 13.2728 6.32675 59.6394
2111 1 24.0441 28.0152 52.794
844 1 5.44246 8.12947 68.4406
846 1 11.3477 8.06923 66.594
848 1 17.1782 8.36005 65.2405
779 1 19.1559 6.19913 58.7376
922 1 31.4212 8.37921 67.5627
857 1 1.61467 10.7819 66.4976
858 1 5.49789 12.7527 68.6018
859 1 8.04937 9.88558 65.6239
860 1 11.6961 12.406 67.0821
931 1 15.4671 9.98972 68.3109
862 1 17.7112 12.8393 66.3554
933 1 21.0609 9.99754 67.6825
935 1 27.2378 10.3035 66.3117
936 1 31.1303 12.0391 68.4275
871 1 1.65292 14.5926 66.6234
873 1 8.21887 14.3763 65.6496
947 1 20.7252 14.5847 67.9896
949 1 27.606 14.8782 66.3472
950 1 30.8967 16.8952 67.7055
885 1 1.85054 19.4638 66.7836
872 1 5.38024 16.6235 68.2785
874 1 11.5311 17.0278 67.8066
959 1 15.43 18.9752 69.0132
876 1 16.9132 16.5981 65.9446
961 1 20.446 18.7392 67.0402
963 1 26.7256 19.0027 66.6462
899 1 2.74609 23.672 66.9898
886 1 5.5968 21.4212 68.185
901 1 8.76805 23.9102 65.1102
888 1 11.5664 21.6478 67.218
890 1 17.7687 21.1065 65.5698
973 1 15.3573 23.6953 68.5275
975 1 21.1899 23.5349 67.6439
977 1 27.4264 23.7121 66.5055
1035 1 30.6391 21.3409 67.9819
900 1 6.13482 26.2141 68.1457
703 1 2.24215 6.24442 54.0376
902 1 12.1043 26.0496 67.3121
904 1 17.9275 25.8839 65.3257
1104 1 31.4132 21.7061 79.3629
978 1 30.4881 25.9613 67.7695
916 1 12.9248 7.8579 71.0507
918 1 18.2825 7.84159 70.9377
920 1 24.7195 7.89378 69.1713
991 1 28.744 5.98653 70.7571
927 1 2.87119 10.2934 70.7686
929 1 9.10442 10.0668 70.2013
930 1 13.0192 12.2447 71.7575
932 1 18.7015 12.4711 70.6009
1003 1 22.255 10.3604 72.0627
934 1 24.5161 12.4909 69.5713
1005 1 28.364 10.2592 70.7513
1006 1 32.2634 12.3479 72.054
941 1 2.58815 15.2187 71.3079
943 1 9.21753 14.6714 70.2497
945 1 15.2311 14.5027 69.3913
944 1 12.7066 16.9722 72.0397
946 1 19.087 16.9653 70.9504
1017 1 22.1054 14.9805 72.3219
1019 1 28.5642 14.8681 70.3921
955 1 2.70101 19.405 71.3999
957 1 8.79506 18.855 69.9586
1031 1 22.6225 19.8509 72.4692
948 1 24.5417 17.0023 69.3812
1020 1 28.1093 19.4881 70.8953
668 1 20.1479 17.2694 51.5674
1022 1 31.9379 16.9708 72.155
969 1 3.4389 24.0035 71.3048
971 1 9.34387 23.8306 69.7421
958 1 12.4508 21.4445 71.3587
960 1 18.6828 21.453 70.7571
1045 1 22.4148 24.3013 71.3946
962 1 24.732 21.6754 69.9636
1047 1 29.0769 24.0095 70.9651
1034 1 32.9227 21.42 72.1489
2105 1 7.8311 28.1073 54.278
1040 1 7.22377 26.0372 76.7878
972 1 12.9115 26.3802 71.7042
974 1 18.9055 26.0284 70.0192
1055 1 10.8072 6.32346 78.5155
976 1 24.7492 26.1387 69.0776
1048 1 32.4754 26.3993 72.2221
1116 1 27.2288 26.0872 78.0016
940 1 0.572164 17.4618 73.9306
914 1 6.7284 8.18114 72.4917
814 1 0.445503 22.1759 63.4362
988 1 19.7968 8.28631 75.3069
990 1 26.514 8.28165 73.6227
775 1 7.01915 6.02822 60.9002
992 1 32.2457 8.16763 72.3012
997 1 3.94966 10.4805 75.5192
928 1 6.44464 12.4061 73.0616
999 1 10.2509 10.4952 74.6368
1001 1 15.8278 10.0543 73.4593
1002 1 20.3722 12.717 74.9651
1004 1 26.0108 12.2999 73.9811
1075 1 29.7955 10.065 74.8287
1011 1 3.81878 15.0281 75.6288
1013 1 10.0412 14.6659 74.5112
1015 1 16.2937 14.6792 73.9882
1016 1 20.1876 17.2354 74.5493
1089 1 29.8819 14.916 74.6631
2321 1 27.1332 27.898 66.3849
1025 1 3.76301 19.3183 75.5831
942 1 6.46069 17.1045 72.551
1027 1 10.3667 19.4655 74.1344
1029 1 16.578 19.1397 73.1605
1018 1 25.8978 17.1096 73.8764
1103 1 29.6894 19.6148 75.2164
954 1 0.551202 21.789 73.5693
1039 1 3.87841 24.019 75.9533
956 1 6.3763 21.7949 72.6665
1041 1 10.0846 24.0992 74.4146
1028 1 14.0989 22.0002 75.7458
1043 1 16.7165 23.8867 73.1683
1030 1 20.15 22.1986 74.4572
1032 1 26.8261 21.8516 73.6356
1117 1 30.2481 23.7914 75.1544
1063 1 33.9801 6.22533 76.0711
634 1 4.69383 8.42386 51.7761
970 1 6.51615 26.1326 72.3962
1042 1 14.0952 26.574 75.978
845 1 7.62839 5.88503 64.9766
1044 1 19.9224 26.8603 74.5494
1046 1 26.8416 25.8989 73.3701
1102 1 26.9897 22.1944 78.2191
982 1 1.04892 8.00475 78.2736
984 1 7.66757 8.11917 77.1847
1038 1 1.13596 26.7509 78.1556
986 1 13.7356 7.97702 75.8295
2251 1 26.0485 27.9162 62.0183
1060 1 26.9585 8.09072 78.1492
1062 1 31.5164 8.65679 78.8487
996 1 0.941814 12.6464 78.6424
998 1 7.20408 12.8538 77.0779
1069 1 11.2558 10.9907 78.4714
1000 1 14.0161 12.5095 76.3875
1071 1 17.2957 10.4514 77.684
921 1 27.5938 6.28114 66.1526
1073 1 23.7132 9.98536 76.2955
1074 1 27.1396 12.7769 77.8714
1076 1 31.7015 12.4926 78.9734
983 1 3.89451 5.92347 75.4893
1010 1 1.02039 17.1563 78.5171
640 1 20.1849 8.64233 51.5728
1014 1 13.2805 17.1793 75.8493
1085 1 18.3866 15.0898 78.1499
1087 1 23.7997 15.3347 76.8181
1088 1 27.6142 17.5316 77.7778
758 1 0.494882 26.0371 56.9585
1012 1 7.64969 16.9497 77.1124
1097 1 11.6084 19.6478 79.0494
1099 1 17.3443 19.6041 77.0136
1101 1 23.9686 20.1499 76.4382
1024 1 1.39945 21.9286 78.3174
1026 1 7.59774 21.466 77.1148
1111 1 11.1494 23.9285 78.6274
1113 1 17.7166 24.2547 77.3837
1115 1 23.5608 24.6595 76.0736
662 1 4.96684 16.9721 51.6052
2245 1 8.36211 28.1845 65.2879
690 1 4.96633 26.3925 51.3138
853 1 32.617 6.02023 61.1836
769 1 30.147 23.4556 51.3126
915 1 8.76888 6.22335 69.6122