ITEM: TIMESTEP
167000
ITEM: NUMBER OF ATOMS
16000
ITEM: BOX BOUNDS pp pp pp
3.6846385226549927e-01 1.0183153614773846e+02
5.7256804021519869e+00 9.6474319597846616e+01
-5.1774876580957923e+00 1.0737748765809636e+02
ITEM: ATOMS id type x y z
32 1 10.1857 17.2347 -5.02145
6 1 14.7308 7.89298 -4.27831
8 1 19.784 7.69964 -4.26835
10 1 24.0755 7.67901 -2.95879
12 1 28.5083 8.30902 -2.44784
14 1 32.6405 7.84125 -2.17985
85 1 4.11561 10.2696 -2.88887
87 1 7.798 10.2159 -2.09482
5835 1 33.9663 19.4426 13.8535
89 1 11.9991 10.6992 -1.62471
20 1 14.8765 12.6429 -4.43397
22 1 19.4609 12.3945 -4.03668
24 1 23.8178 12.2149 -3.13871
26 1 28.521 12.5046 -2.85929
28 1 33.0395 12.6738 -2.04688
99 1 3.52259 15.1894 -2.95279
101 1 7.91424 14.9175 -1.5991
103 1 12.607 15.1013 -2.18747
38 1 24.2016 16.5546 -3.02333
40 1 28.4867 16.8843 -2.66346
113 1 3.25292 19.3988 -3.84454
115 1 6.94853 19.2643 -2.66412
117 1 12.402 19.7274 -1.69577
34 1 15.1028 17.3624 -4.67038
36 1 19.0538 17.1856 -4.37083
10943 1 0.70215 7.36087 6.37918
42 1 33.1019 17.0478 -1.70585
127 1 3.82474 23.9798 -3.07185
129 1 8.21147 23.8589 -2.72115
131 1 12.8721 24.3659 -1.50971
48 1 15.2834 21.8712 -4.81322
50 1 19.681 21.9201 -4.24791
52 1 24.0825 21.3485 -2.67235
54 1 28.4967 22.3199 -2.37758
56 1 32.9163 21.0716 -2.13207
346 1 21.9907 26.7413 21.8653
62 1 15.1154 25.7067 -4.44754
64 1 19.2978 26.4377 -4.34638
66 1 23.8887 26.1795 -3.19557
68 1 28.4747 26.0039 -2.39748
70 1 33.1495 25.843 -1.87386
71 1 3.33212 5.67595 -3.39642
72 1 5.31505 7.495 0.866576
74 1 10.0606 8.06952 1.06371
76 1 14.5499 8.22603 1.40537
344 1 17.2997 26.3888 21.3784
353 1 5.7501 5.83718 22.7446
351 1 1.3943 6.0263 22.3214
86 1 5.65404 12.3592 0.353274
88 1 9.27611 12.66 1.53001
90 1 14.4526 12.5892 1.54485
91 1 16.6337 9.63941 -1.45249
93 1 21.3177 10.1602 -0.398464
95 1 25.7416 9.62711 0.472917
97 1 30.4981 9.82787 0.661776
104 1 14.0016 16.6485 1.0957
105 1 17.1397 14.2724 -1.51741
107 1 21.7363 14.7615 -0.587043
109 1 26.2619 14.3899 0.47386
111 1 30.2885 14.7067 0.965584
10904 1 1.12193 16.2409 -0.0262315
100 1 5.59919 16.9341 0.879674
102 1 9.87018 17.0697 0.921551
119 1 17.1965 19.009 -1.62165
121 1 21.6662 19.3378 -0.871157
123 1 26.0286 19.5252 0.318996
125 1 30.3046 19.0034 1.1783
10917 1 1.03321 21.4564 -0.504583
114 1 5.25557 22.5578 0.417917
116 1 9.74348 21.7974 0.80706
118 1 14.3921 21.1769 1.57363
133 1 16.8946 24.0133 -1.07936
135 1 21.4048 24.0948 -0.981885
137 1 25.5016 23.6335 0.312399
139 1 30.2688 23.74 1.02278
10930 1 1.5045 26.1596 -0.81345
128 1 5.38145 26.6687 0.357484
130 1 10.0522 26.1722 1.01255
132 1 14.7241 25.9142 1.63926
1541 1 2.90855 28.2872 2.89453
350 1 31.1082 26.0842 22.0265
342 1 12.6564 25.965 20.7078
213 1 6.88434 6.26003 10.3532
322 1 30.8007 16.9573 22.8372
78 1 19.1233 8.0981 2.35422
80 1 23.5994 7.63768 2.87465
82 1 28.3727 7.81973 3.4612
84 1 32.941 7.63974 4.10924
155 1 2.61408 9.95267 3.0189
157 1 7.56901 10.3059 3.90434
159 1 11.9214 10.8109 4.27064
161 1 16.1116 10.5398 5.01216
92 1 18.6004 12.5664 2.32344
94 1 23.7222 12.3558 2.57565
96 1 27.9598 12.1301 4.04397
98 1 33.0287 12.262 3.73017
169 1 2.83004 14.5634 3.09121
171 1 7.31944 14.7038 4.20294
173 1 12.0184 14.9442 4.6882
108 1 23.125 16.9778 2.99642
183 1 3.19793 19.2619 3.02493
185 1 7.67933 19.9831 3.91617
187 1 11.3976 18.9315 4.12136
189 1 15.7213 19.1599 4.70445
106 1 18.6526 17.3154 1.76617
110 1 27.7036 16.864 3.7847
112 1 31.9571 17.231 4.04009
197 1 2.64596 24.0057 3.15817
199 1 7.4991 24.5519 4.06386
201 1 11.9132 24.0014 4.29306
120 1 18.3296 21.7022 1.73652
203 1 16.4551 23.7025 5.17425
122 1 23.3287 21.5618 2.57381
124 1 27.5624 21.4825 4.10645
126 1 32.2483 21.2254 4.37139
340 1 8.35006 26.0079 19.4761
134 1 19.127 26.2405 2.40242
136 1 23.2402 26.2428 2.77165
138 1 27.7817 26.159 3.19735
140 1 32.5153 25.9636 4.61932
5861 1 33.1094 6.06531 19.906
142 1 5.14729 8.21127 7.39108
144 1 9.83455 8.03343 7.22111
146 1 14.4926 7.82216 8.20974
148 1 18.5456 8.14017 8.17171
150 1 22.8315 7.58818 9.08784
10878 1 1.33805 7.41919 -0.352375
156 1 4.35839 12.285 6.74223
158 1 9.70829 12.6407 7.00683
160 1 14.3157 12.4428 8.09721
162 1 18.3685 12.5831 8.77768
163 1 20.7352 10.136 5.46479
164 1 22.9264 12.1266 9.13898
165 1 25.593 10.0616 6.16492
167 1 29.7774 10.0385 6.38732
10891 1 1.31577 12.3778 -0.961217
174 1 13.8078 17.302 7.67424
175 1 16.7119 15.2548 4.41296
177 1 20.5513 14.2146 5.53087
179 1 25.2274 14.8303 6.18792
181 1 29.7892 14.124 6.71911
5809 1 33.9338 10.1859 13.8931
170 1 4.97442 17.0685 6.30097
172 1 8.81164 17.1602 7.42476
176 1 18.3484 17.0943 8.46467
191 1 20.3141 18.9343 5.10198
193 1 24.8691 19.6343 6.50824
195 1 29.6125 19.4493 7.204
184 1 4.99417 21.6851 6.68624
186 1 9.70959 21.4427 7.40148
188 1 14.3706 21.5322 8.6126
190 1 18.6575 21.3676 7.76499
205 1 20.4722 23.5287 5.56408
207 1 25.1882 23.8577 6.27924
209 1 29.9009 23.7869 7.68109
198 1 4.81288 26.3628 6.8058
200 1 9.41588 26.3337 7.33444
202 1 13.6809 26.2129 8.09471
204 1 17.8025 25.9913 8.36067
7161 1 33.7752 27.8532 19.2099
381 1 5.76616 14.3478 23.0071
1753 1 5.65253 27.7915 22.6811
326 1 8.47876 21.6449 19.6418
152 1 27.6522 7.75367 9.75367
154 1 31.5393 7.74075 10.5616
225 1 2.06702 9.90037 9.43964
227 1 6.90622 10.2838 9.9305
229 1 11.5584 10.6 10.6493
231 1 16.1315 10.3498 11.5775
233 1 20.427 9.80374 12.2082
166 1 27.6573 11.9673 10.0093
168 1 32.0542 12.4674 10.3076
239 1 2.54972 14.5107 9.28363
241 1 6.42007 14.7591 10.0832
243 1 11.1897 15.0328 10.7105
245 1 15.7939 14.6687 11.4379
247 1 20.656 14.4099 11.6169
180 1 28.0553 16.0524 9.7978
182 1 31.8198 17.1754 9.65448
253 1 2.48391 19.1355 9.39661
255 1 6.63549 19.4127 9.97213
257 1 11.5625 19.5644 10.2497
259 1 16.3496 19.1667 11.2484
178 1 22.7754 17.0054 8.66857
267 1 1.91937 23.8736 9.40912
269 1 6.59234 23.9657 10.2695
271 1 11.2648 23.8019 10.4625
273 1 15.6414 23.8111 11.7351
275 1 20.4213 23.5119 11.7995
192 1 22.7149 21.6326 8.87324
194 1 27.3379 21.8659 9.77141
196 1 31.8927 21.8656 10.4919
5913 1 32.8009 23.4281 19.7356
1751 1 1.0093 27.7176 21.9612
206 1 22.2171 26.217 9.0517
320 1 26.4352 16.9603 22.279
208 1 27.078 26.3475 9.88087
210 1 31.7358 26.716 10.5917
215 1 11.6363 5.7423 11.0305
212 1 4.37109 8.36131 13.2636
214 1 9.00516 8.41768 13.9515
216 1 13.6532 8.32531 14.3865
218 1 17.7276 7.4446 15.1156
220 1 22.3668 7.88957 15.6964
1681 1 1.94256 27.8903 15.1418
222 1 27.0102 7.6496 16.7203
348 1 26.6469 26.4125 21.8692
295 1 0.900002 9.81257 16.0793
226 1 4.66621 12.1667 12.5805
228 1 8.5425 12.3208 13.912
230 1 13.3101 12.9333 14.2923
232 1 17.8981 12.219 14.6193
234 1 22.4954 12.3265 15.5382
235 1 25.0341 9.44826 12.8992
237 1 29.4714 10.061 13.6303
236 1 27.2764 12.0086 15.7473
5744 1 34.26 10.0783 7.86976
309 1 1.73734 14.2331 15.7609
242 1 8.84499 17.4687 13.0331
244 1 13.3488 17.3513 14.0121
246 1 18.018 16.6584 14.925
248 1 22.4409 17.0606 14.851
249 1 25.2643 14.1654 12.3839
251 1 30.0052 14.7686 13.1147
145 1 12.2378 6.30873 4.95509
240 1 4.23863 16.7008 12.7679
261 1 20.0536 18.8962 11.316
263 1 24.7808 18.8939 12.2098
265 1 28.8931 19.3857 13.2077
332 1 22.118 21.8551 21.4422
254 1 4.37434 21.534 12.7032
256 1 8.88718 21.4418 13.5475
258 1 13.2354 21.3053 14.0373
260 1 17.831 21.2276 14.9926
262 1 22.5588 21.448 15.2589
277 1 25.0596 23.9973 12.2459
279 1 29.1238 24.1732 13.5044
5848 1 33.7092 23.8539 13.1612
409 1 5.89622 23.8773 22.7991
268 1 4.40421 25.6158 12.9837
270 1 8.66541 26.14 13.7097
272 1 13.4881 25.9604 13.9995
274 1 17.8979 25.8045 15.0469
276 1 22.313 25.3725 14.6825
289 1 20.4086 5.90364 18.2126
282 1 3.03134 7.66197 19.0098
407 1 1.46122 23.2133 22.4393
293 1 29.3891 5.66261 20.1159
335 1 28.8403 19.2768 19.1392
330 1 17.5362 21.6905 20.805
224 1 30.8367 8.06687 16.9401
297 1 5.52831 10.0275 16.6752
299 1 10.3657 10.5347 17.0256
301 1 15.161 10.1522 17.5221
303 1 19.2304 9.94903 18.1269
305 1 24.3506 10.4376 19.0883
307 1 28.8249 9.97884 19.6824
238 1 31.7844 12.5628 16.5116
311 1 6.33603 14.9638 16.2486
313 1 10.8694 15.0255 16.5811
315 1 15.4408 14.8269 17.1838
317 1 20.1293 14.649 17.9617
319 1 24.3386 15.0151 18.5984
250 1 26.7778 16.704 15.7765
321 1 28.713 14.4428 19.4653
323 1 2.34635 18.3979 15.6574
310 1 3.9439 16.5236 19.1613
325 1 6.00274 19.0443 16.2595
327 1 10.5533 18.7608 17.2026
329 1 15.1651 19.5853 17.2321
331 1 20.502 19.2701 18.0155
333 1 24.3157 19.4158 18.5485
252 1 31.2635 17.1764 16.6933
5900 1 33.4396 18.9718 19.8161
337 1 1.99344 23.1245 15.7291
324 1 4.34757 21.3367 19.3211
339 1 6.51714 23.5878 15.7461
341 1 10.6335 23.7226 17.1302
343 1 15.2373 23.9204 17.3121
345 1 20.4009 23.999 18.6679
347 1 24.2075 24.1853 18.6182
264 1 26.2824 21.2716 15.8329
266 1 31.0124 21.6711 16.6326
338 1 3.65176 26.1013 19.2652
349 1 29.0382 24.3026 18.8155
334 1 26.2196 22.0444 21.9799
278 1 26.5007 26.5516 16.3738
280 1 31.7033 26.2761 16.301
328 1 12.8876 21.3001 20.175
318 1 21.3201 16.832 21.7393
284 1 8.1646 8.44187 19.6148
286 1 13.3018 8.26891 20.6218
288 1 17.1609 7.54426 21.0362
290 1 21.7747 7.78181 21.6966
292 1 26.2969 7.99453 22.118
296 1 3.51435 12.5193 19.1709
365 1 1.41214 10.679 22.1562
298 1 8.08825 12.8865 19.133
300 1 12.9815 12.3192 20.4409
302 1 16.9975 12.7179 21.0674
304 1 21.8461 12.5271 21.0796
306 1 26.2733 12.4519 22.831
5874 1 33.2661 10.2177 20.2492
1551 1 25.3815 27.9514 5.77586
379 1 1.53105 14.8533 21.8807
312 1 8.11428 17.1295 19.963
314 1 12.8266 16.7547 20.4131
316 1 17.3635 17.1608 20.7732
395 1 5.8668 19.2293 22.7414
5887 1 33.1462 14.7861 20.4738
393 1 1.48465 19.6405 21.5407
1475 1 12.3304 28.2605 -1.46275
1613 1 6.67949 28.1811 9.92335
1619 1 20.1896 28.203 11.7624
143 1 7.55864 5.74562 4.21922
75 1 11.7826 5.94594 -1.68931
285 1 11.0863 5.94891 16.2466
1617 1 16.0852 28.5427 11.5539
1549 1 21.4341 28.1826 6.08156
1621 1 24.7269 28.494 12.5115
1545 1 12.0501 28.2844 4.61366
60 1 10.4773 26.0005 -5.01157
352 1 2.88063 7.94127 26.2865
354 1 7.60645 8.27968 26.1949
567 1 13.6917 5.55348 43.0272
547 1 0.540244 24.0337 34.961
366 1 3.02818 12.6142 25.79
648 1 5.47261 12.3494 51.1499
369 1 10.7582 9.92493 23.0966
371 1 14.5189 10.5673 23.6867
373 1 19.1854 10.5789 24.2601
375 1 23.8765 10.4039 24.9353
377 1 28.3199 9.65721 26.1519
495 1 8.8674 5.75515 36.1164
385 1 14.5748 15.2779 23.8299
387 1 19.3281 14.6072 24.1297
389 1 23.6774 14.7337 24.9247
391 1 28.1926 15.1717 26.2207
5952 1 32.7521 14.6301 26.1895
380 1 3.29504 16.6082 25.3923
382 1 7.84795 17.0035 26.1633
573 1 28.5367 6.09012 42.3437
399 1 14.5726 19.5332 23.7429
401 1 19.1704 19.4426 24.0398
403 1 23.4721 19.3911 23.9593
405 1 27.9246 19.6552 25.6604
5965 1 32.9663 19.667 26.0625
394 1 2.98459 21.2979 25.6846
396 1 7.67827 21.6846 26.2284
499 1 18.2041 5.69708 36.6865
413 1 14.9291 23.341 24
415 1 19.3464 24.0961 24.4548
417 1 23.9928 23.7937 24.8019
419 1 28.6239 23.9305 25.1279
5978 1 33.3148 24.2105 25.754
408 1 3.51588 26.1999 25.1862
410 1 7.6952 26.0969 26.3331
477 1 0.45885 23.9889 27.6294
646 1 1.7069 12.2398 50.4151
497 1 13.4838 5.65128 36.8502
1761 1 24.2136 28.2651 25.5341
533 1 0.414369 19.2885 34.3551
6173 1 33.7604 23.9526 41.7247
356 1 12.2929 7.73996 27.0292
358 1 16.2464 8.26049 27.2396
360 1 21.0886 7.91848 27.9933
362 1 25.571 7.9941 28.5966
364 1 29.9986 7.81789 29.5491
336 1 30.7369 21.4109 22.9073
437 1 5.14841 10.061 28.7638
368 1 8.38673 12.4414 26.5252
370 1 12.6024 12.5171 27.0499
372 1 16.8063 13.2053 27.1918
374 1 21.2228 12.9808 27.8328
376 1 25.8392 12.6959 28.7779
378 1 30.408 12.6195 29.4551
5939 1 32.2107 10.1781 27.0648
449 1 0.60293 14.2892 28.3816
451 1 5.60121 14.8722 29.2954
453 1 10.1289 15.2928 29.8519
384 1 12.4789 17.1655 26.8316
386 1 17.2854 17.3805 26.9211
463 1 0.472074 19.1171 28.2751
465 1 4.9595 19.3682 29.2272
467 1 9.6045 19.3186 29.9164
469 1 14.117 19.1345 29.7957
388 1 21.8347 16.9923 27.3983
390 1 25.6231 16.7119 28.762
392 1 30.5113 17.2885 29.3687
361 1 23.3043 5.79719 25.287
479 1 4.98185 23.7579 29.1585
481 1 9.42861 24.0312 30.1419
398 1 12.0705 21.9869 26.7749
400 1 17.2254 21.6464 27.6091
402 1 21.7672 21.6469 27.39
404 1 26.187 22.0438 28.4024
406 1 30.5866 22.002 28.6102
294 1 30.7128 7.79511 23.6043
412 1 11.6846 25.9383 26.6132
414 1 17.0228 26.1829 27.4992
416 1 21.4825 26.2311 27.9868
418 1 25.9623 26.2199 28.4689
420 1 30.4882 26.2628 28.6575
422 1 2.8304 7.83431 32.164
424 1 7.45149 7.97103 32.801
426 1 11.425 8.27768 33.0197
1969 1 17.046 28.2976 43.6556
436 1 2.54537 12.2689 32.0226
439 1 9.5419 10.3395 29.6932
440 1 12.5244 12.6923 32.9949
441 1 14.2628 10.6063 30.0555
443 1 18.6746 10.503 30.5913
445 1 23.1869 10.3109 31.4009
447 1 27.5363 10.3436 32.4261
6004 1 32.1752 10.2594 32.325
438 1 6.61901 11.8529 32.7036
455 1 14.325 15.3436 30.5174
457 1 18.8479 14.8152 30.3369
459 1 23.2177 15.1285 31.4464
461 1 27.9945 14.9661 32.4938
6017 1 31.928 15.1241 32.3123
450 1 2.52853 17.3855 31.8216
452 1 7.38669 16.3188 32.3026
454 1 11.8458 17.266 33.4611
471 1 18.9814 19.4715 30.3524
473 1 23.5838 19.1492 31.3139
475 1 27.9537 19.402 31.8285
6030 1 31.9652 20.0219 32.5661
464 1 2.39654 21.6803 31.2601
466 1 7.18071 21.437 32.055
468 1 12.2913 21.8602 33.1233
483 1 13.9788 23.8804 30.4299
485 1 18.8795 23.8352 30.4301
470 1 16.1462 21.6609 33.3649
487 1 23.5125 23.2867 30.9835
489 1 28.136 24.0472 31.9519
6043 1 32.5868 24.3354 32.4384
478 1 1.76693 26.0263 31.6969
480 1 6.35656 25.9473 32.9369
482 1 11.7686 26.4017 33.4893
484 1 15.9248 26.5987 33.8296
6160 1 33.9321 19.2331 41.7561
700 1 32.2405 26.1544 48.8307
428 1 16.1785 8.39866 33.7567
430 1 20.8175 8.40446 33.6129
432 1 24.8339 8.18252 35.1595
434 1 29.498 8.04831 35.2332
507 1 4.35446 10.3576 35.5497
509 1 8.90942 10.1256 36.0996
511 1 13.6304 10.1678 36.7752
442 1 16.2804 12.391 34.0451
444 1 20.8548 12.5532 33.8696
446 1 25.3687 12.7708 34.7788
448 1 29.9859 12.5728 35.7549
6069 1 33.7631 10.054 36.5078
521 1 4.95092 15.1018 34.967
523 1 9.90235 14.5734 36.1896
525 1 13.8715 14.6221 36.1839
527 1 18.1163 15.0707 36.8209
460 1 25.3315 16.9482 34.7227
462 1 29.6001 17.3798 35.7797
535 1 5.27633 19.4497 35.1519
537 1 9.27938 19.2716 35.4671
539 1 14.0163 19.2233 36.4141
456 1 16.7333 17.2565 33.0216
458 1 20.5848 17.1456 34.1122
549 1 5.0535 24.1575 36.2703
551 1 9.06756 23.8216 35.7925
553 1 13.4102 23.8932 36.2568
472 1 20.9181 21.8578 34.0425
474 1 25.2068 21.6342 34.8551
476 1 30.0109 21.5792 35.577
641 1 23.085 5.9458 48.4378
486 1 20.4887 26.3982 34.1185
488 1 25.1126 26.1204 34.6083
490 1 29.7409 26.333 35.3459
492 1 2.41866 7.47128 37.7213
494 1 6.26023 8.21551 39.0938
496 1 10.8728 8.96004 39.1968
498 1 15.5859 7.74959 40.0441
504 1 31.0619 8.18495 39.8489
506 1 2.31998 12.8687 38.1335
508 1 6.85691 12.9536 38.5325
510 1 11.2171 12.9128 39.3908
512 1 15.342 12.5724 39.4293
513 1 18.3276 10.2249 37.6186
515 1 22.7425 10.4988 37.6579
514 1 20.0695 12.72 40.3755
517 1 27.167 10.3569 38.5685
518 1 30.9763 12.4602 39.4893
520 1 2.52227 17.3065 38.2654
524 1 11.4374 17.4172 39.3697
529 1 22.8153 15.1735 37.333
531 1 27.0386 14.7104 38.6024
6082 1 33.5934 15.2216 36.7243
522 1 6.86243 17.4424 38.3836
526 1 15.7186 17.2943 39.8597
541 1 18.2989 19.7605 37.1176
543 1 23.0156 19.5383 37.4649
532 1 30.4646 16.6815 40.1027
545 1 27.494 19.8114 38.0073
6095 1 32.8047 19.6847 37.2518
534 1 2.00805 22.0174 37.7179
536 1 7.34576 21.3535 38.3448
538 1 10.9486 21.3394 39.3541
540 1 15.0755 21.8983 39.851
555 1 18.1149 24.2232 37.0259
542 1 19.8935 22.1544 40.0558
559 1 27.2678 24.4724 37.8825
546 1 30.7214 21.8188 39.5189
6108 1 33.6915 24.1108 36.8769
548 1 2.6035 26.45 38.5256
550 1 7.27227 26.0109 38.9302
552 1 11.2389 26.4635 39.1522
554 1 14.8503 26.3598 39.9395
411 1 10.4221 23.8946 23.1632
557 1 22.5509 24.2969 37.745
556 1 19.4366 26.6179 40.1964
560 1 30.5445 26.3568 39.8457
2033 1 3.14061 28.0699 48.0403
500 1 20.2673 7.99196 40.2562
2041 1 22.7986 28.3027 48.1157
502 1 24.7526 7.97034 41.0579
577 1 4.24493 10.3679 41.7051
579 1 8.90746 10.5813 42.2396
581 1 13.1622 10.2032 42.9966
583 1 17.5958 10.4828 42.9368
585 1 22.1674 10.2756 43.9075
516 1 24.5049 12.8616 41.1873
587 1 27.9392 10.8366 42.3022
591 1 4.6737 14.9818 41.4185
593 1 8.39663 15.3182 42.3633
595 1 12.7153 14.7463 42.3719
597 1 17.4605 14.8143 43.2465
528 1 20.3768 17.3768 40.6472
599 1 21.7472 14.8457 44.1204
601 1 27.7543 14.7323 42.6299
1897 1 13.5125 28.1534 36.6792
605 1 3.94304 19.685 41.2508
607 1 8.54561 19.9734 42.2486
609 1 13.0958 19.4151 43.1918
611 1 17.5229 19.7561 43.2955
613 1 22.0091 19.7266 43.9511
530 1 24.1101 17.3761 41.2894
615 1 28.2092 19.4114 42.619
619 1 3.84126 23.8519 41.5096
621 1 8.47965 24.1429 42.3567
623 1 12.1877 23.9209 43.1352
625 1 16.9064 24.174 42.5773
627 1 21.5193 24.2899 42.7796
544 1 24.4874 21.9605 41.0508
629 1 28.3796 24.1117 42.5428
616 1 31.7135 21.7181 44.493
397 1 10.3766 18.8127 23.7994
1971 1 21.6095 28.382 44.3072
632 1 1.28473 7.80713 50.5026
357 1 14.2869 5.9197 24.564
558 1 24.2516 26.4236 40.5197
698 1 26.6376 26.1773 49.8284
562 1 1.47701 7.61512 44.196
564 1 6.3504 7.88315 44.9723
566 1 10.8923 8.11455 45.3804
568 1 15.0545 8.45954 46.1329
570 1 19.7215 8.78251 46.8137
572 1 25.9523 8.20549 45.6075
574 1 31.6736 8.73007 44.4031
576 1 1.70088 12.303 44.1582
578 1 6.19769 12.5135 45.3939
580 1 10.2074 12.7723 45.6501
582 1 15.4625 13.1076 46.0849
584 1 19.5806 12.7872 46.7685
586 1 24.874 12.6861 45.4644
588 1 31.6781 12.678 44.1281
590 1 1.68447 17.0189 44.284
592 1 6.18456 17.676 44.8888
594 1 10.5307 17.0351 45.8502
596 1 14.9743 17.1278 45.9168
598 1 19.7184 17.3088 46.3561
600 1 25.4367 17.2801 45.743
671 1 28.4128 14.3603 47.2884
602 1 31.8128 16.8644 44.0627
604 1 1.02441 21.8235 44.5876
606 1 5.66928 21.6734 45.1236
608 1 10.5729 21.7135 46.0913
610 1 15.1308 21.3816 46.0639
612 1 19.5774 21.9836 46.238
614 1 25.7217 21.9991 45.7627
699 1 28.945 23.3311 47.1384
618 1 1.12354 26.306 44.1639
620 1 5.23761 26.1538 45.0881
622 1 10.8051 26.1969 45.8149
624 1 15.0253 25.973 46.1481
519 1 0.600221 15.3502 34.6007
626 1 19.7741 26.0224 46.7889
628 1 25.6889 25.9895 45.0205
630 1 31.6636 26.0261 44.1648
640 1 20.8099 8.16722 50.496
6056 1 34.0163 5.957 37.1286
308 1 31.0278 12.3541 23.3303
642 1 26.2077 8.91737 50.0728
644 1 32.4002 8.15441 48.3177
647 1 3.35569 9.9495 47.7861
649 1 7.82827 10.2995 48.0966
651 1 12.5065 10.7451 48.997
653 1 17.1507 11.1554 49.7169
655 1 23.4678 10.7489 48.4206
657 1 28.9958 10.4282 47.0319
656 1 26.501 12.5257 50.3901
658 1 32.5415 12.0806 49.0691
661 1 3.75341 14.6853 47.817
1823 1 5.02578 28.1166 28.9145
663 1 8.21118 14.6148 49.0311
665 1 12.9282 15.2286 48.7311
667 1 17.2777 15.5183 49.6612
669 1 23.2795 15.1371 47.9666
660 1 1.04971 16.722 50.8574
675 1 3.70373 19.2383 47.6968
677 1 8.15128 19.3414 49.0878
679 1 12.6986 19.206 49.0965
681 1 17.2842 19.3608 49.5583
683 1 22.8473 19.7844 48.551
685 1 28.9865 18.9602 47.0095
670 1 26.507 17.0606 49.3368
672 1 32.1446 16.7238 49.0497
689 1 3.16365 23.9739 48.4697
674 1 1.00758 21.4601 50.8458
691 1 7.82519 24.0595 48.5262
693 1 12.4715 23.3148 49.3379
695 1 16.8431 23.8976 49.6621
1825 1 9.66024 28.0163 30.0483
684 1 26.7693 21.846 49.516
697 1 22.9044 24.377 48.3912
686 1 32.6308 21.0556 48.9539
429 1 18.5084 5.7269 30.5097
1895 1 8.71632 28.5376 36.1633
367 1 5.68138 10.2567 23.0777
1831 1 23.3922 28.0373 31.9283
355 1 10.5176 5.9905 23.5622
503 1 26.8789 6.46986 38.1714
427 1 14.4223 6.20349 31.0026
383 1 10.0711 14.1916 23.2194
635 1 8.01122 6.06049 48.2328
421 1 0.372319 5.97272 28.91
682 1 20.2807 22.1396 50.8049
2035 1 8.47305 28.0915 48.5533
637 1 13.5064 6.05476 48.7032
662 1 5.49834 17.0024 50.685
431 1 22.7746 5.89824 31.616
639 1 17.2623 5.94963 49.3786
7226 1 32.6352 28.2893 26.0154
2043 1 29.2424 27.9234 46.678
1757 1 14.4588 28.1289 24.0704
359 1 18.8153 5.8588 24.2777
668 1 20.7406 17.569 50.7738
851 1 26.3686 5.52947 61.656
705 1 7.44721 5.84198 54.3945
690 1 5.61476 25.556 51.3701
1105 1 34.1286 18.846 75.6371
638 1 14.7268 8.18803 52.5425
2105 1 7.321 28.2033 55.1573
712 1 27.4213 7.74151 54.2997
717 1 3.1468 9.92547 54.2312
650 1 10.497 12.5299 51.5549
744 1 0.577255 21.598 57.4186
652 1 14.725 12.9452 52.4568
723 1 18.7864 10.3454 53.291
781 1 25.4452 5.83964 56.6122
725 1 23.9767 10.6058 52.9836
726 1 27.819 12.6055 53.8226
727 1 30.5272 10.367 51.86
728 1 33.6747 12.539 52.9583
731 1 2.89426 14.3792 53.5244
733 1 7.03223 15.049 53.443
737 1 18.0819 15.2903 54.0056
739 1 24.1338 15.5171 53.0915
741 1 30.144 14.9646 51.6342
740 1 28.1004 16.9253 55.0264
745 1 3.16329 19.2323 54.3982
664 1 10.2171 16.564 52.1046
666 1 14.8558 17.0047 52.7947
751 1 18.2206 19.8677 54.1621
6537 1 34.1082 19.0639 69.3644
753 1 23.7988 19.5703 52.418
755 1 29.7857 19.6607 51.5409
759 1 3.02318 23.6342 53.5498
676 1 5.02602 21.5598 50.783
678 1 10.3324 21.2042 52.1047
680 1 14.7418 21.7324 53.0982
765 1 17.5722 24.5512 54.159
767 1 23.9771 24.2621 52.5605
754 1 27.4547 21.4393 53.9885
730 1 0.495089 17.0593 57.5135
654 1 20.9273 12.8779 51.1526
692 1 10.1592 26.0226 52.2779
694 1 14.0324 26.5199 51.9737
758 1 0.38735 26.1001 57.578
768 1 28.0137 26.0076 54.4687
847 1 14.25 5.71239 64.2105
770 1 33.72 25.9128 52.9947
704 1 5.1938 8.05096 57.0377
708 1 15.1592 8.03221 56.8244
1104 1 31.7412 21.5239 78.3956
710 1 21.2138 8.05491 55.2913
926 1 0.708286 12.829 73.7375
989 1 22.1201 5.72226 71.6789
719 1 7.85563 10.6943 54.5262
718 1 4.9488 12.7361 57.4315
720 1 9.77483 12.3184 58.5004
721 1 12.5347 10.5435 55.1884
722 1 15.9084 12.6679 57.0417
724 1 21.0136 13.3834 55.8548
795 1 25.0769 10.5619 56.8639
797 1 31.2381 9.81347 55.8443
732 1 5.28071 17.2445 57.8243
735 1 11.9036 14.6356 55.4313
736 1 15.9603 17.3513 57.7701
738 1 21.6357 17.9752 55.8645
809 1 25.3892 14.6905 57.0266
811 1 30.7711 13.7511 56.204
747 1 7.06506 19.2868 54.5481
749 1 11.8164 19.4 55.6669
750 1 15.3596 21.5307 56.9341
821 1 19.9021 20.1014 58.4236
823 1 25.0935 19.5664 56.9726
825 1 31.2678 19.2039 55.9279
1077 1 34.028 10.0783 75.9811
761 1 7.23654 23.789 54.4969
746 1 5.20449 21.2599 57.0692
763 1 11.7932 24.1748 55.5049
752 1 21.6993 22.4551 55.2781
837 1 24.9486 24.155 57.1326
839 1 30.873 24.06 56.1735
2455 1 11.0704 28.3667 78.8788
760 1 4.38447 25.6855 57.7346
764 1 15.5888 26.238 57.1655
766 1 21.0958 26.7575 56.1328
714 1 33.7033 7.75479 53.3532
843 1 1.93892 6.07967 66.4276
706 1 9.96955 8.32065 57.8118
778 1 16.6781 7.80587 61.3271
780 1 22.6241 8.00418 59.8245
782 1 28.4511 7.89291 58.3407
787 1 2.63164 9.8759 60.4166
789 1 7.31258 10.106 60.6833
791 1 13.6431 10.397 59.5848
793 1 19.0664 10.4209 58.2338
792 1 17.0787 12.6143 61.4519
794 1 22.4793 12.6033 59.602
796 1 28.1506 12.5001 58.7128
867 1 31.9452 10.4215 60.5092
801 1 2.50739 14.4105 60.4956
803 1 6.96637 14.8991 60.999
805 1 12.7919 14.795 59.5701
807 1 19.2256 15.737 58.6571
806 1 16.183 17.2816 61.78
808 1 22.7889 17.0276 60.31
810 1 28.6284 17.189 58.8704
881 1 32.4346 15.0235 59.6955
815 1 2.59832 19.1675 60.1921
817 1 6.40903 19.4405 61.2198
734 1 8.96395 17.0937 57.819
819 1 12.5902 19.5953 59.7499
820 1 16.5171 21.5774 61.307
895 1 32.1794 19.591 60.2964
829 1 2.01508 23.8099 61.3504
831 1 6.85112 24.0213 61.6546
748 1 9.39465 21.4588 58.0743
833 1 12.8909 23.9592 59.4961
835 1 19.2771 24.0228 58.6142
822 1 22.814 21.8257 60.5181
824 1 28.3669 21.6759 58.3995
909 1 31.8772 24.2218 60.4841
769 1 29.8125 24.0739 51.5379
762 1 9.03498 26.0162 58.1066
1116 1 26.617 26.3178 77.7528
834 1 16.6335 25.6659 61.5798
2461 1 29.7338 27.6968 75.8097
836 1 22.7834 26.1528 60.5762
838 1 28.4593 26.3068 58.5579
702 1 0.441287 8.36826 56.9671
774 1 4.37705 8.14896 63.5023
776 1 10.8648 7.84179 62.3569
848 1 18.0067 8.03785 65.9505
636 1 10.4833 7.8111 51.9259
850 1 24.0079 7.51483 64.9841
852 1 30.0342 7.69078 62.8146
913 1 3.05438 6.19121 70.7619
788 1 4.20374 12.1992 63.3853
790 1 10.5555 12.5663 62.7325
861 1 13.9499 10.3784 63.829
863 1 20.6212 9.75128 62.6832
865 1 25.8238 9.77392 61.7833
864 1 24.0672 11.9947 64.9797
866 1 29.9329 12.3539 63.0661
802 1 4.01315 16.9383 64.2015
804 1 9.96037 17.1012 62.475
875 1 13.9479 15.0249 64.1053
877 1 20.4215 15.3163 62.8556
879 1 26.2424 14.2732 61.5762
878 1 23.8101 17.3039 64.1995
880 1 30.0193 16.3937 63.2037
951 1 33.1622 14.4897 65.2573
889 1 13.4102 19.6829 64.2541
891 1 20.5054 19.9472 62.9438
893 1 26.3101 19.5492 61.0236
816 1 4.3796 21.563 63.4835
818 1 10.4148 21.5 62.7115
903 1 13.728 24.3269 63.9478
905 1 20.4738 23.8307 63.8624
907 1 26.2099 23.3986 61.7047
892 1 24.3863 21.3307 65.004
894 1 29.3214 21.6366 62.9631
964 1 32.9406 23.9501 64.7029
830 1 4.52262 26.1056 64.1917
832 1 10.3417 26.2627 62.495
2391 1 28.4509 28.5409 71.1754
756 1 32.9091 22.1461 53.2572
906 1 23.7167 26.0028 64.8265
908 1 29.0819 26.2783 62.7898
779 1 18.8623 5.98173 58.9434
915 1 9.22798 6.14247 69.5613
1118 1 31.2593 25.8214 78.6262
844 1 5.67449 7.98234 68.1185
846 1 11.6853 7.71372 66.5756
1038 1 1.6736 25.7919 77.7614
922 1 31.0339 8.05285 67.2986
857 1 1.58281 10.1486 66.6706
859 1 8.35028 10.3562 65.2161
858 1 5.22362 12.5998 68.0075
860 1 11.5769 12.2258 67.1975
862 1 18.1069 13.0257 65.9387
933 1 21.347 10.0603 67.1281
935 1 27.6246 9.65026 66.022
937 1 33.6308 9.8972 64.8602
871 1 1.70393 14.7362 66.5935
873 1 7.72122 14.4469 65.7831
945 1 14.8011 15.3651 68.4232
876 1 17.9875 17.4604 66.0647
947 1 21.4654 14.6309 67.4217
949 1 27.0594 14.7578 65.7473
950 1 31.2241 17.0722 67.6697
885 1 1.50088 19.0976 66.3641
872 1 5.2754 17.1732 68.2984
887 1 8.09282 19.1579 64.9293
874 1 11.0819 16.9588 66.5582
959 1 15.5428 19.6368 68.3743
961 1 20.9749 19.1979 67.5195
963 1 27.1712 18.7813 65.9014
1033 1 32.8516 19.2408 64.865
899 1 2.35766 23.7621 66.5626
886 1 6.01984 21.6178 68.5995
901 1 8.05105 23.8645 65.9963
888 1 11.1492 22.3097 67.4278
973 1 14.6522 24.0717 68.6409
890 1 17.5364 22.1485 65.7888
975 1 21.0673 24.0477 67.6989
962 1 24.8363 21.2871 69.0174
977 1 27.4383 23.8732 66.1044
1035 1 30.7947 21.767 67.4152
900 1 5.51505 26.2439 68.0953
902 1 12.2985 27.0015 67.4038
904 1 17.2944 26.8161 65.8267
713 1 29.6826 5.85454 51.3888
2459 1 23.4508 28.2273 76.3991
978 1 30.5474 25.661 67.6297
1102 1 27.7167 21.622 78.3847
916 1 12.672 7.72283 71.026
918 1 17.9874 7.46937 69.8831
920 1 24.6599 7.35776 69.4745
2457 1 17.2558 28.2138 77.4707
927 1 3.12414 10.4718 71.092
928 1 6.39062 12.6392 71.8737
929 1 8.42714 10.5571 69.4188
931 1 15.4211 10.2148 68.1953
930 1 12.6772 12.4887 71.4125
932 1 18.5352 12.1812 69.9258
1003 1 22.6169 10.4575 71.6673
934 1 25.0305 11.9741 68.6231
936 1 30.502 12.4758 67.8709
1005 1 28.2139 10.4249 70.3827
783 1 31.2221 5.98071 55.8931
941 1 2.92154 15.116 71.2837
943 1 9.04391 15.0459 69.9923
1017 1 22.3464 14.573 71.2891
948 1 24.4287 16.6033 68.7361
1019 1 28.413 14.4191 70.2557
1022 1 31.8298 16.6769 72.5115
955 1 2.38456 19.367 70.4919
957 1 8.85423 19.2182 69.6987
944 1 12.7349 17.253 71.0426
946 1 18.4019 17.1031 70.0557
1031 1 22.3713 19.9123 72.0409
1020 1 27.9834 18.7636 70.4565
969 1 2.60445 23.7415 70.5454
956 1 4.83804 21.512 72.7275
971 1 9.02792 23.1496 70.6669
958 1 12.9636 21.8269 71.4111
960 1 18.6908 21.947 70.1244
1045 1 22.3037 24.1988 71.9436
1047 1 28.316 23.8595 70.6712
2175 1 6.88969 27.9252 60.953
972 1 12.3474 25.9944 71.2985
974 1 18.4884 26.5699 70.1674
921 1 27.2535 5.82604 66.1216
1115 1 24.0558 23.6734 76.8102
976 1 24.6241 26.3452 69.413
2321 1 26.9061 27.9555 66.5364
2103 1 2.86426 28.2514 54.1878
1048 1 31.9581 25.2988 71.8589
914 1 6.64019 8.11771 73.0495
1100 1 20.4075 21.837 79.0468
988 1 19.4466 7.63274 75.059
990 1 25.504 8.22421 73.482
992 1 31.9837 8.25529 72.2436
997 1 3.58986 10.7465 75.3982
999 1 9.88904 10.4183 73.7582
1000 1 13.6679 12.5709 75.6029
1001 1 16.1016 9.99522 72.9669
1002 1 19.6947 12.2168 74.2973
1004 1 26.3241 12.864 72.9455
1075 1 29.3295 10.0916 75.5041
1006 1 31.8316 12.1222 72.1744
1011 1 4.05035 14.5905 75.5278
942 1 5.95497 17.6257 72.8322
1013 1 10.0466 15.2765 74.0435
1014 1 13.8154 16.7626 75.6002
1015 1 16.3687 14.6127 72.4808
1018 1 25.7652 17.193 73.065
1089 1 29.4405 14.5715 74.7674
1091 1 33.8117 13.9786 75.8617
1025 1 3.68701 19.4284 75.4531
1027 1 10.0956 19.2112 74.0078
1029 1 16.5376 19.2096 72.8252
1016 1 19.8441 16.8199 74.6703
1103 1 29.4864 19.2187 74.7686
1039 1 3.77857 24.0224 75.1453
1041 1 9.88071 23.3011 74.2283
1028 1 13.8971 21.4794 75.7956
1043 1 16.2455 24.636 73.0829
1030 1 19.6201 22.0467 75.1119
1032 1 25.6017 21.5143 73.4105
1117 1 29.5541 23.9058 74.7847
1119 1 34.3037 23.8154 75.5844
1034 1 31.886 20.9873 71.951
970 1 6.37934 25.8229 72.4792
1042 1 13.3054 25.9306 75.5934
1044 1 20.2952 26.339 75.0644
1046 1 25.7112 26.2604 73.377
2173 1 2.13955 28.0391 61.1211
1113 1 16.5678 23.9593 77.3335
982 1 1.18841 7.96379 78.0565
984 1 7.10834 7.93003 76.8119
773 1 2.35593 5.73529 59.8841
986 1 13.3502 7.6992 75.5802
1111 1 10.7688 23.692 78.7028
1040 1 6.99948 26.3672 77.6586
1060 1 26.8464 7.51912 77.6222
1062 1 31.4616 8.2396 78.4241
996 1 0.943357 12.0652 78.324
998 1 7.77223 12.4048 76.8658
1069 1 11.1797 10.0456 78.5201
1071 1 17.1344 9.77341 76.8859
1072 1 20.7576 12.3318 78.7651
1073 1 23.3066 9.97999 76.361
1074 1 27.1721 12.5709 77.5424
709 1 18.0769 5.73092 54.1512
1083 1 11.0516 14.0903 78.2471
1085 1 17.4325 14.9866 77.1274
1087 1 23.3822 14.6131 76.1102
1088 1 26.4117 17.131 78.0367
1010 1 0.871446 16.7955 78.2
1012 1 7.47031 16.9294 77.1813
1097 1 10.8061 18.9362 78.3358
1099 1 17.6932 18.9763 77.2991
1101 1 23.1353 19.0545 76.2989
1090 1 31.1 16.8968 78.3009
1024 1 1.60373 21.2348 78.1218
1026 1 7.3197 21.3661 76.7444
2243 1 1.45708 28.4393 66.634
742 1 33.3707 17.3639 53.1018
2249 1 19.8789 27.853 63.2454
696 1 21.0685 26.701 51.9676
2385 1 10.271 28.1073 74.2564
2393 1 33.8808 28.2681 69.4899
991 1 28.3186 5.67461 70.4345
1061 1 29.4246 5.99903 74.973
1114 1 20.8906 26.5488 79.1857
1076 1 31.5434 12.3228 78.6374
634 1 5.62702 8.05366 51.7173
1052 1 2.84403 7.47217 82.2814
1054 1 8.41826 8.07851 81.5082
1056 1 14.042 7.8162 79.985
1203 1 32.9991 5.8145 88.1434
1199 1 23.7756 5.81733 86.7078
12048 1 0.115557 7.49583 101.96
1066 1 2.39164 12.2125 82.4617