ITEM: TIMESTEP
140000
ITEM: NUMBER OF ATOMS
16000
ITEM: BOX BOUNDS pp pp pp
3.1495555989551605e-01 1.0188504444010795e+02
5.7142776581987107e+00 9.6485722341800283e+01
-5.1375090702466082e+00 1.0733750907024569e+02
ITEM: ATOMS id type x y z
322 1 31.0092 16.8196 23.0002
287 1 14.9795 5.78274 17.8197
1483 1 30.3289 27.5425 1.42721
6 1 14.9223 7.72344 -4.67047
8 1 19.5917 7.76734 -3.90108
10 1 24.2666 7.68753 -3.03233
12 1 28.4181 7.6221 -3.01715
14 1 32.9931 6.77829 -3.0499
85 1 3.50229 10.1661 -2.84033
87 1 7.97131 10.0762 -2.17253
20 1 15.1015 12.317 -4.21909
89 1 12.6307 9.77114 -1.58413
22 1 19.6463 12.2759 -3.56774
24 1 23.9452 12.36 -2.87301
26 1 28.4065 12.2312 -2.68903
28 1 33.0214 12.5893 -1.98748
99 1 2.97134 14.7165 -3.23545
101 1 8.11396 14.6658 -1.94795
40 1 28.1824 17.0292 -2.53875
42 1 33.2192 17.089 -1.80368
113 1 3.90206 19.4355 -3.05698
115 1 7.67626 19.2765 -2.55884
34 1 15.0829 17.0507 -4.24853
36 1 19.7697 16.6791 -3.43773
38 1 23.6689 16.8197 -3.57102
127 1 3.7255 23.6952 -3.03758
129 1 7.57849 23.9101 -2.14561
48 1 14.8469 22.0361 -4.03309
50 1 20.0166 21.1068 -4.01679
52 1 23.5934 21.3521 -2.66978
54 1 28.1543 21.0467 -2.07897
56 1 32.7728 21.8586 -1.69247
69 1 31.0371 23.2608 -5.14091
62 1 15.1576 25.9506 -4.52274
64 1 19.1422 26.337 -3.65865
66 1 23.6438 25.8673 -2.62095
68 1 28.3084 25.8761 -2.33086
70 1 33.0435 26.2278 -2.20581
10878 1 0.77211 8.00937 -0.0184995
72 1 4.75939 7.75011 0.402268
74 1 9.99052 7.67247 1.27033
76 1 13.9995 7.90468 1.68255
289 1 19.5804 5.80075 18.7304
10891 1 0.971118 12.5742 0.185548
86 1 4.77214 12.3553 0.294223
88 1 10.188 12.0735 1.5116
91 1 17.2123 9.91208 -0.796466
93 1 21.7256 10.2394 -0.497989
95 1 26.1085 10.1576 0.503842
97 1 30.9913 9.71895 0.151697
10904 1 1.18118 17.3227 0.431903
103 1 12.3448 14.4788 -1.2328
105 1 16.8684 14.5623 -0.472006
107 1 20.9455 15.131 -0.384125
109 1 25.5758 14.8111 -0.0852807
111 1 30.6483 14.9137 0.233198
100 1 5.02374 16.6701 0.546138
102 1 9.5091 17.5249 0.703744
117 1 12.3629 19.0943 -1.95652
119 1 16.8702 19.2765 -0.98221
121 1 21.469 19.0218 -0.162583
123 1 25.2662 18.9897 0.434342
125 1 30.5638 19.1137 1.07644
10917 1 1.18209 21.2074 0.322924
114 1 5.29476 21.217 0.893173
116 1 9.90794 22.0263 0.848019
131 1 12.2063 23.8234 -1.49145
133 1 16.829 23.1883 -0.819589
135 1 21.4383 23.4972 -0.591919
137 1 25.3181 23.845 0.742942
139 1 30.6686 23.6733 1.00039
10930 1 0.804455 25.9461 0.0489991
128 1 5.11032 25.9223 1.05272
130 1 9.7598 26.2497 1.21334
132 1 14.5708 26.3379 1.77097
77 1 16.8722 5.89922 -0.727176
5809 1 32.9941 10.9785 14.6716
1611 1 1.93157 28.2226 9.31132
73 1 8.11624 6.01772 -2.26026
78 1 19.5597 7.66438 2.77106
80 1 23.8086 7.7187 2.9544
82 1 28.7639 7.90596 3.11489
84 1 32.5562 7.73897 4.27935
155 1 2.78084 10.245 3.08272
157 1 7.53845 10.2051 3.64114
90 1 14.4286 11.8657 1.94968
159 1 11.9574 10.0983 5.39293
92 1 19.1919 11.7481 2.48391
94 1 23.7589 12.1591 3.34376
96 1 28.16 12.423 3.04874
98 1 32.4768 11.9282 4.06855
169 1 2.76584 14.8406 3.86498
171 1 7.06459 14.5199 3.60229
173 1 12.3459 14.785 4.8541
104 1 13.9873 16.6468 1.63628
106 1 18.7112 16.6637 2.75051
112 1 31.8002 16.5539 4.54239
183 1 2.88843 18.9609 4.26007
185 1 7.26443 18.8615 3.91631
187 1 11.7725 19.2754 4.37279
189 1 15.8173 19.443 5.05059
108 1 23.1713 16.5941 3.51707
110 1 27.9064 16.8215 3.52519
197 1 3.08855 23.5773 3.29577
199 1 7.62776 23.5007 4.37172
201 1 12.3491 23.925 4.58701
118 1 13.946 21.4844 1.7093
120 1 19.3864 21.1606 2.22058
122 1 23.6832 21.3234 3.24833
124 1 28.0005 21.4744 3.66394
126 1 32.4351 21.3135 4.67437
346 1 21.8321 25.6279 21.2203
134 1 18.8116 25.5222 2.57045
136 1 23.3744 26.3761 3.06002
138 1 27.8795 25.9679 3.96082
140 1 32.4546 25.9612 4.115
383 1 9.80845 14.7601 22.9116
142 1 4.82861 8.1962 5.91013
144 1 9.32189 8.03178 7.20071
146 1 14.0165 7.81899 8.12348
148 1 18.5489 8.22286 8.72635
211 1 1.55295 5.85395 9.70284
156 1 5.03896 12.7326 6.64336
158 1 9.34248 13.4143 7.79256
160 1 14.6904 12.3955 8.23378
161 1 16.4124 9.85935 5.58762
163 1 21.3423 10.0005 5.7354
165 1 25.9088 9.93201 6.36581
167 1 30.2248 10.5335 7.26605
172 1 9.77074 17.3182 7.68655
175 1 16.2728 14.6678 5.15835
177 1 21.0422 14.6802 5.84204
179 1 25.5199 13.8792 6.59839
181 1 30.1143 14.5258 7.12121
60 1 10.4988 25.9413 -5.2593
170 1 5.21325 17.273 6.90296
174 1 13.9568 17.4451 8.00057
191 1 20.8882 19.1426 6.26748
193 1 25.7273 19.0554 6.54258
195 1 29.4791 18.8904 7.27245
5848 1 33.2493 23.7191 13.2182
184 1 5.29167 21.895 6.89987
186 1 10.1585 21.6784 8.10305
203 1 16.7112 23.5939 4.80317
205 1 21.2507 23.901 6.07332
207 1 25.4051 23.8734 6.53324
209 1 29.9335 24.3618 6.98483
10995 1 0.829025 26.3804 6.04014
198 1 4.94666 26.5861 6.72667
200 1 9.24252 25.7519 7.5969
202 1 13.8564 26.2551 8.41885
204 1 18.5053 26.0492 8.46812
5744 1 34.1441 10.3701 7.84043
5770 1 34.0946 19.4812 7.65113
308 1 30.1668 12.2966 22.0741
344 1 17.0488 25.7387 20.9216
150 1 23.0743 7.39982 9.11012
152 1 27.5478 8.0724 10.3028
154 1 31.3784 8.39541 11.1546
225 1 2.23114 9.91008 8.85832
227 1 6.77132 10.083 10.1025
229 1 11.7653 10.6309 10.511
162 1 18.5737 12.4337 8.66424
231 1 16.2525 10.8471 11.2715
233 1 20.1061 10.4792 12.4844
164 1 23.0439 12.1642 9.52946
166 1 27.3316 12.2269 9.73025
168 1 31.3116 12.5349 10.8827
239 1 1.86575 14.6016 8.93332
241 1 6.38214 14.7496 9.75028
243 1 11.6878 14.435 10.8346
245 1 16.265 15.5504 11.3771
180 1 27.8855 17.0663 10.3204
182 1 32.2722 17.0556 10.4131
253 1 2.43649 19.4302 8.98258
255 1 7.03599 19.1353 9.99921
257 1 10.9136 18.9814 11.7694
176 1 18.4373 17.0586 8.37516
259 1 16.1141 19.2576 11.704
178 1 23.1078 16.8467 9.54087
267 1 2.44075 23.4844 9.64858
269 1 6.85694 23.9686 10.1527
271 1 10.9768 23.2994 11.5082
188 1 14.2279 22.177 8.59724
190 1 18.1986 21.3694 8.60969
273 1 16.1374 24.0807 11.8295
275 1 20.0462 24.0898 11.7626
192 1 22.7851 21.4681 9.36432
194 1 27.2524 21.8533 9.9575
196 1 31.7283 21.8427 10.3012
369 1 10.429 10.1335 22.7827
206 1 22.7782 26.0908 9.93301
7161 1 33.1397 28.146 20.2908
5757 1 33.8718 14.1567 8.26355
208 1 27.0728 26.4454 9.95918
210 1 32.3155 26.2769 9.82687
212 1 3.83858 7.27358 12.7066
214 1 9.06094 7.76647 13.1159
216 1 13.6454 8.28583 14.0994
218 1 17.9572 7.57478 14.8748
220 1 22.4482 8.08767 15.725
222 1 27.2317 8.04873 16.3478
295 1 1.97053 10.1531 15.6593
226 1 4.45064 12.2024 12.3944
228 1 9.11032 12.3688 12.6365
230 1 13.7555 12.5375 13.9193
232 1 17.5235 13.1199 14.8706
234 1 22.2749 12.4262 15.3661
235 1 24.1967 9.76039 12.9711
237 1 28.7275 10.738 13.0131
236 1 26.2257 12.3682 16.3028
348 1 26.0203 25.615 22.6019
309 1 1.77629 14.5265 15.3525
244 1 13.2986 16.9099 14.5758
246 1 18.2228 17.0157 15.3525
247 1 20.1422 14.6844 12.3244
249 1 24.9035 14.4311 13.0687
251 1 29.5707 15.4331 13.2749
5822 1 33.9912 15.24 14.3176
240 1 3.66915 17.0423 12.532
323 1 1.71221 19.2041 15.0595
242 1 8.12175 16.703 13.1419
261 1 20.6313 19.3202 12.1336
248 1 21.9993 16.9062 15.7415
263 1 24.8601 19.0934 12.7362
265 1 29.2593 19.5191 13.3042
254 1 4.66792 21.6381 12.567
337 1 1.59748 23.9015 15.1696
256 1 8.24675 21.3812 13.889
258 1 13.5728 21.9529 14.2129
260 1 18.1057 21.5355 15.2469
262 1 22.1444 21.4798 15.5413
277 1 25.3431 23.6282 12.8238
279 1 29.0721 23.7658 13.4213
1751 1 1.27316 28.1317 21.4003
342 1 13.3102 25.8674 20.1324
268 1 4.78782 26.0114 13.1465
270 1 8.51237 26.2645 13.9594
272 1 12.8937 26.5133 14.1629
274 1 18.4697 26.1801 15.1652
276 1 22.6681 26.2298 15.1124
282 1 3.91246 8.04084 19.0704
283 1 6.25333 5.6609 15.773
340 1 8.5096 25.9787 19.9859
224 1 31.1346 8.03398 16.2329
296 1 3.66941 12.7256 19.0742
297 1 6.5406 10.4251 16.2206
299 1 10.7292 10.5215 16.626
301 1 15.2207 10.3048 17.743
303 1 19.8585 9.73816 18.6888
305 1 24.3499 10.2933 18.9317
238 1 31.4711 13.2713 17.4701
311 1 6.43368 14.4835 15.9397
313 1 10.7803 14.7745 16.6767
315 1 15.3988 14.3079 17.8596
317 1 19.1658 14.2328 18.2373
319 1 23.5916 14.9505 19.249
252 1 31.5472 17.317 16.7277
325 1 6.36677 18.7713 16.0042
327 1 10.3572 19.4242 16.3281
329 1 14.9814 18.7684 17.4471
331 1 19.5403 19.1269 18.4957
333 1 24.0067 19.0799 19.2149
250 1 26.6058 16.7995 16.4891
324 1 3.83695 21.3128 18.6187
339 1 6.10966 23.914 16.2071
341 1 10.8182 24.7786 16.8185
345 1 19.7055 23.3759 18.1477
347 1 24.3975 23.7733 18.619
349 1 29.0078 23.9538 19.6768
264 1 26.8564 21.4177 16.8033
266 1 31.6001 21.7419 16.7646
338 1 3.45037 25.9312 18.991
153 1 29.5815 5.74781 7.2775
343 1 14.9459 24.0776 17.2955
397 1 10.4693 19.7109 22.85
278 1 27.1364 25.9759 16.1496
280 1 31.1009 26.3659 16.5982
32 1 10.2088 17.0873 -4.64603
284 1 7.75067 8.36518 19.4205
286 1 12.8241 8.03146 20.7125
288 1 17.021 8.1946 21.2386
290 1 22.069 8.01014 21.7377
292 1 26.6528 7.89729 22.5296
293 1 29.1733 5.84763 19.8038
1547 1 16.6381 28.1213 5.22462
365 1 1.59155 10.4634 21.8209
367 1 6.15316 10.523 22.4669
298 1 8.23778 12.735 19.5852
300 1 12.8352 12.6421 20.1104
302 1 17.1693 12.3075 21.2184
304 1 21.7711 12.7849 21.9099
306 1 26.2462 12.7103 22.476
307 1 28.8911 10.4501 19.1862
5874 1 33.4347 10.1571 20.7316
379 1 0.824217 15.2473 22.2055
381 1 5.54715 14.8684 22.9323
321 1 28.4083 15.1355 19.4071
5887 1 33.6433 14.6778 20.1225
310 1 3.72773 16.7214 19.0455
393 1 1.82954 19.4493 21.6305
395 1 6.18129 19.5486 22.2084
312 1 8.00189 17.3769 19.5736
314 1 12.513 17.255 20.5623
316 1 17.5829 16.916 20.9775
318 1 21.5082 16.8423 22.2713
320 1 26.3688 16.6397 22.5538
335 1 28.7276 19.6275 19.7385
5900 1 33.8593 19.5866 20.1902
407 1 1.55497 24.0779 22.0237
409 1 5.86234 23.5233 22.3776
326 1 8.43438 21.6647 19.6355
328 1 12.6211 21.8201 19.6819
330 1 18.0116 21.396 21.1354
332 1 22.0921 21.4832 21.5445
334 1 26.5146 21.1113 22.5515
5913 1 33.4093 24.1498 20.3047
1623 1 29.2278 28.0445 12.7223
41 1 30.5209 14.898 -4.94335
1471 1 3.78863 28.3899 -2.64568
1615 1 11.5012 28.2532 10.9124
1543 1 7.74562 28.1197 3.70934
213 1 6.54549 6.06073 9.86245
1477 1 17.2208 28.3066 -1.0307
1475 1 12.399 28.3027 -1.68555
1753 1 5.82464 27.6941 22.3188
5835 1 34.0921 19.6352 13.6075
1473 1 7.92467 28.3354 -1.57887
1681 1 1.81575 28.2108 15.522
1479 1 21.5003 28.2578 -0.112954
1621 1 24.908 28.2075 12.627
79 1 21.5793 5.7633 -0.401216
285 1 11.0248 5.91091 16.9809
350 1 30.7154 25.7309 22.9369
352 1 3.32939 8.34571 25.1466
354 1 8.1891 8.11271 26.0612
294 1 30.857 8.09949 23.341
449 1 0.775447 14.8062 28.1109
363 1 28.6251 5.96308 25.9758
366 1 3.10696 12.7327 25.6469
368 1 7.68691 11.975 25.9832
646 1 0.387317 12.5677 50.2814
371 1 14.5994 10.0444 24.7296
373 1 19.1575 10.4645 24.8376
375 1 23.7618 10.2364 25.6333
377 1 28.36 10.7159 26.2754
571 1 22.5408 6.63741 43.2443
495 1 8.91243 5.90438 35.0031
385 1 14.7743 14.7186 23.9497
387 1 19.6068 14.6766 24.7749
389 1 24.1314 14.1212 25.7015
391 1 28.8252 14.6674 26.0466
380 1 3.42849 17.3644 25.2868
635 1 8.07758 6.43567 48.3145
399 1 14.9461 19.223 23.1397
401 1 19.1784 19.3756 24.7521
403 1 23.7907 18.8754 25.7187
405 1 28.4283 19.3833 25.8266
5965 1 32.8829 19.4394 27.1297
491 1 0.790978 5.93509 34.5971
394 1 3.3893 21.7395 25.5371
396 1 7.65913 21.9181 26.0459
411 1 10.208 23.8937 23.0648
660 1 0.927033 17.2394 50.149
400 1 16.562 21.4904 27.6048
415 1 19.3162 23.9429 24.765
417 1 23.8864 23.573 25.1212
419 1 28.4751 23.6778 26.0601
5978 1 33.6535 23.833 27.2727
408 1 3.06885 25.9254 25.3103
410 1 7.79312 25.8899 25.9188
412 1 12.1911 25.4801 27.0965
688 1 0.875548 26.1285 50.4583
356 1 11.5843 8.34518 27.6529
358 1 17.1537 8.38683 27.3991
360 1 21.7641 8.05001 27.9608
362 1 26.1872 8.49286 29.104
364 1 30.6416 8.16872 29.5944
493 1 4.9643 5.76015 35.7634
437 1 5.43241 10.3312 28.7971
439 1 10.0026 11.3314 29.3567
370 1 12.2588 13.2657 26.6998
372 1 16.799 12.2032 27.4182
374 1 21.3282 12.5773 28.4665
376 1 25.9477 12.5045 28.948
378 1 30.2202 12.6897 29.1755
5939 1 33.1594 10.6375 26.6419
565 1 8.41449 5.79983 42.0622
382 1 7.8737 17.7625 26.3954
451 1 5.40192 15.0783 28.9951
453 1 9.97802 15.3338 29.1591
384 1 12.3926 17.0199 26.3894
455 1 14.659 14.9897 30.2206
386 1 17.0995 16.8546 27.3793
5952 1 33.2854 15.2559 26.9494
463 1 0.452607 19.5282 28.3859
465 1 4.41617 19.5046 28.9507
467 1 9.18995 19.741 29.3829
469 1 13.7056 19.0056 30.0932
388 1 21.4187 16.8615 28.2595
390 1 25.7687 17.2193 28.6772
392 1 30.4351 17.2464 29.2303
676 1 5.15455 21.5241 51.0759
479 1 5.01429 24.1025 29.2058
481 1 8.99783 24.3806 29.9532
398 1 12.402 21.5518 26.5008
483 1 13.6877 23.5643 30.3226
402 1 21.2796 21.3702 28.2247
404 1 25.9949 21.2669 29.2931
406 1 29.9184 21.7731 29.5345
693 1 12.1593 23.8484 49.1133
414 1 16.9451 25.9271 27.5534
416 1 21.294 25.7135 28.1443
418 1 25.6206 25.9688 28.7101
420 1 30.2631 26.388 29.6183
700 1 33.1186 25.9476 49.5256
422 1 2.69428 7.82926 31.6637
424 1 7.2197 8.51214 31.9023
426 1 11.9257 8.09525 32.2697
413 1 15.1276 23.7998 23.9151
435 1 0.918997 10.0819 28.1655
639 1 17.0585 5.8588 49.0181
436 1 2.61933 12.6515 31.676
438 1 7.03186 13.1663 32.1686
440 1 11.7079 12.9424 33.122
441 1 14.5287 10.3522 30.5992
443 1 18.9927 10.2285 30.9826
442 1 15.9952 12.3744 33.7121
445 1 23.0066 10.1792 31.9276
447 1 27.9679 10.5965 32.7336
6004 1 32.5882 10.1403 32.3011
457 1 18.5925 14.8261 30.3809
459 1 24.1338 14.6072 31.3846
461 1 27.7832 15.0858 32.4193
6017 1 32.0157 15.6039 32.3951
450 1 2.30962 17.2875 31.7336
452 1 6.83575 17.5349 32.61
454 1 11.4845 17.5378 32.9861
471 1 18.3316 19.8164 30.4695
473 1 23.1551 19.1926 31.9071
475 1 27.7715 18.9152 32.6167
6030 1 32.4402 19.416 32.9126
464 1 2.53426 22.5522 31.5902
466 1 7.20464 21.7113 32.5708
468 1 11.8823 21.4909 33.0647
485 1 18.3152 23.7032 31.0273
470 1 16.2195 21.7639 33.9225
487 1 22.9868 23.7572 31.9652
489 1 27.5509 23.5348 32.2047
6043 1 32.4658 24.1611 32.9625
478 1 2.6029 26.8955 31.5154
480 1 7.28326 26.5334 32.3124
482 1 11.805 26.0747 32.6975
484 1 16.3135 26.1357 33.3281
503 1 27.0216 5.91069 37.9242
662 1 5.75492 16.8619 51.2151
428 1 16.3189 7.63478 33.9497
430 1 21.0128 7.79348 34.5087
432 1 25.7531 7.77143 34.8334
434 1 29.8615 8.04545 35.0486
507 1 4.97017 10.5633 35.309
509 1 9.50476 10.3503 35.7845
511 1 13.755 10.1583 35.8462
444 1 20.7368 12.844 33.7882
446 1 25.2314 12.423 34.8848
448 1 30.018 12.6529 35.2149
6069 1 33.5514 9.99283 36.8359
521 1 4.62947 14.6703 35.4225
523 1 9.0789 15.0074 35.8903
525 1 13.5314 15.0022 36.6963
456 1 16.2313 16.4589 33.152
527 1 17.9877 14.8894 37.0891
458 1 20.5651 16.8083 35.1703
535 1 4.59144 19.1691 35.4738
537 1 9.41601 19.2747 35.9588
539 1 13.7209 19.1032 36.8829
460 1 25.0006 17.3142 35.2424
462 1 29.7783 16.2638 35.5696
549 1 4.65871 23.7177 34.816
551 1 9.15526 23.9138 35.796
553 1 13.7941 23.9279 36.5344
555 1 18.2049 23.8323 37.28
472 1 20.9742 21.541 34.4211
474 1 25.6473 21.5936 35.3059
476 1 29.6009 21.5162 35.5084
6108 1 33.1498 23.5275 37.462
433 1 27.6256 5.81516 32.0937
486 1 20.7452 26.3422 34.5269
488 1 25.0791 25.634 34.6372
490 1 29.1477 25.9384 35.5692
654 1 20.8811 12.8523 50.7492
492 1 2.48611 8.12059 37.5202
494 1 7.19605 8.04315 38.3839
496 1 11.5529 8.04125 39.3273
498 1 15.8046 8.20614 39.5297
1757 1 14.6419 27.7781 24.0703
500 1 20.335 8.11859 40.2867
357 1 15.0452 6.03509 24.0102
1829 1 18.7526 28.2755 31.2085
504 1 31.1111 8.10732 39.8012
506 1 2.05712 12.715 38.0755
508 1 6.85882 11.9422 38.5647
510 1 11.5605 12.6967 39.0943
513 1 17.6273 10.3448 36.592
512 1 15.461 12.417 39.7889
515 1 22.1875 10.0388 37.4125
514 1 20.0414 12.1067 40.3871
517 1 27.7424 10.4699 38.1007
518 1 31.0239 12.6205 40.312
520 1 2.38331 17.1813 37.8184
526 1 16.016 17.1498 40.2074
529 1 22.6855 14.7215 37.683
531 1 27.3155 14.9513 38.3674
6082 1 33.409 14.8161 36.7948
532 1 30.9456 16.7443 40.1671
522 1 6.27602 17.828 38.5649
524 1 10.8538 17.2275 39.7786
541 1 18.1518 19.056 37.3563
543 1 22.8139 19.4443 38.2622
528 1 20.4933 17.0214 40.5095
545 1 27.5998 19.0102 38.6351
6095 1 33.1884 19.4458 37.5669
534 1 2.18945 21.9579 38.2178
536 1 6.48802 21.875 38.664
538 1 11.0954 21.8039 39.6092
540 1 15.6586 21.1831 39.8305
557 1 22.5518 24.3605 38.1501
559 1 27.0888 23.7875 38.2774
546 1 30.4135 22.279 39.9637
548 1 1.82417 25.8133 38.0742
550 1 6.76939 26.1013 38.9891
552 1 10.7535 26.0107 39.7132
554 1 15.4391 25.9332 40.1832
556 1 20.1081 26.0775 40.9034
1903 1 27.5922 28.2631 38.2863
560 1 31.1358 26.133 40.4309
562 1 1.44297 7.84565 44.0103
5926 1 33.0351 6.01641 27.2845
502 1 24.5094 8.50959 40.1119
573 1 28.4366 5.68609 42.6648
577 1 4.15758 10.3577 40.8205
579 1 8.34157 10.7893 42.8119
581 1 12.7168 10.0711 42.728
583 1 17.2733 10.1141 43.3696
516 1 24.4938 12.2429 40.8142
587 1 27.7909 10.3325 42.6472
591 1 4.12834 14.8234 41.4545
593 1 8.23121 14.7474 41.7929
595 1 12.8771 14.7152 43.1728
597 1 17.6222 14.8385 43.0657
599 1 22.6386 14.5505 43.6344
601 1 28.0869 14.9905 42.4377
427 1 14.4341 5.77231 30.2847
605 1 3.90419 19.1911 41.6905
607 1 8.17729 19.3192 42.3138
609 1 13.7363 19.5612 42.8599
611 1 17.7709 19.3111 43.4575
530 1 24.4887 16.8981 40.4309
615 1 27.9083 19.5082 42.7064
336 1 30.8243 21.4611 23.3735
619 1 3.76398 23.8171 41.4417
604 1 1.00908 21.5822 44.6743
621 1 8.40504 23.9381 42.8096
625 1 17.3993 23.7832 43.9882
542 1 19.9431 21.5474 40.8942
627 1 22.1691 23.7353 44.4225
544 1 24.3851 21.5046 41.1427
629 1 27.9089 24.0011 42.938
698 1 26.8338 25.9633 50.0563
618 1 1.16403 26.1982 44.1264
359 1 19.7875 5.99786 24.2905
623 1 13.116 24.1547 43.0924
558 1 24.8711 26.2327 41.4383
1895 1 9.34671 28.1875 36.0138
564 1 5.80317 8.0983 44.5811
566 1 10.3727 8.31121 45.3542
568 1 15.5004 8.01076 45.639
641 1 23.3921 5.79037 47.9279
570 1 19.7923 7.64598 46.6893
572 1 25.6741 8.19306 45.643
574 1 31.6557 8.12283 44.3175
576 1 1.56412 12.4816 44.1682
578 1 6.2815 12.6995 45.4369
580 1 11.022 12.2787 46.0141
582 1 14.8168 12.3042 46.7564
585 1 21.9795 10.5984 43.7081
584 1 19.556 12.3515 46.7883
586 1 25.9712 12.5989 45.1288
657 1 29.7598 10.7903 47.3495
588 1 31.7896 12.5758 44.1726
663 1 8.01557 14.7221 48.6526
598 1 19.747 16.7405 46.5236
600 1 26.0486 16.2292 45.7924
602 1 31.7888 17.2661 43.7735
590 1 1.74218 16.883 44.7412
592 1 6.50401 17.1598 44.8831
594 1 10.6846 17.4105 45.6722
596 1 14.8918 16.8649 46.3801
613 1 22.2564 18.9076 44.0019
685 1 29.0773 19.2368 47.0593
689 1 3.69128 23.9762 47.5419
606 1 5.47042 21.5603 44.2566
608 1 10.4541 21.5665 45.2699
610 1 14.834 21.4004 46.9705
612 1 19.0661 21.2615 46.5412
614 1 25.2311 21.4301 45.8963
699 1 29.6621 23.8128 47.2975
616 1 31.6191 21.9208 44.1655
620 1 5.3933 26.0969 44.8666
622 1 10.6828 26.3 45.4993
624 1 14.8425 25.9776 46.79
626 1 19.1439 26.1541 47.0122
628 1 25.455 25.5043 45.6846
630 1 32.2239 26.4601 44.2627
632 1 0.391903 8.13575 49.939
634 1 5.03105 7.20972 50.7929
1761 1 24.0692 28.1004 24.8081
1969 1 17.3679 28.2338 43.7361
686 1 32.8268 21.2156 48.6818
642 1 26.5321 7.90762 49.4557
644 1 33.1753 8.04916 48.7463
647 1 3.22008 10.195 47.7705
1759 1 19.4761 27.8155 24.2742
649 1 7.77782 10.0328 48.2272
7226 1 32.533 28.1229 26.5271
651 1 13.2235 9.33291 48.6402
653 1 17.192 10.4765 49.2895
2041 1 22.9858 28.2853 48.6567
655 1 23.5084 10.265 48.2601
656 1 26.8193 12.8186 49.974
658 1 33.2609 11.965 48.5651
661 1 3.53199 14.8549 47.8299
665 1 11.7864 14.6424 48.9404
667 1 17.0096 14.4326 49.3425
669 1 23.2724 15.0166 48.19
671 1 29.6637 14.5921 46.9592
675 1 3.16776 19.3257 47.3962
569 1 17.7362 6.3884 42.7655
1897 1 13.6594 28.137 36.4036
677 1 7.85851 19.3713 47.6513
679 1 12.2598 19.8547 49.3219
681 1 17.0171 19.0956 49.6189
1833 1 27.8522 28.3248 32.2245
683 1 23.5332 19.0674 48.4218
670 1 27.0172 16.8924 50.3951
672 1 33.063 17.4378 48.8109
674 1 0.639068 21.8702 50.4914
2043 1 29.5834 28.0659 46.6271
691 1 7.80227 24.1037 48.1683
695 1 17.5283 23.8525 50.0231
697 1 22.5487 23.6937 48.7375
1899 1 18.2806 28.0591 36.987
684 1 26.5774 21.7413 50.1717
643 1 29.367 6.03244 46.933
1763 1 27.8513 28.3435 25.3975
7356 1 33.0872 28.3597 37.1499
1821 1 1.20626 28.0493 27.9226
1827 1 14.0248 28.4081 30.3171
1901 1 22.9635 28.4152 38.0271
1971 1 21.6233 28.2445 43.9038
1973 1 28.1935 28.3337 43.1371
1831 1 22.8284 27.9652 31.816
499 1 17.7976 5.84628 37.1323
423 1 5.39645 5.93559 29.0256
429 1 19.2454 6.00867 30.7879
421 1 0.460538 5.86764 28.0331
682 1 20.3985 21.3297 50.9927
353 1 5.79369 6.19232 23.0854
775 1 6.78627 5.96094 60.3971
636 1 10.6564 7.9308 51.4521
638 1 15.0141 8.58783 52.5643
777 1 13.1976 5.77862 59.44
917 1 15.0442 5.67465 68.6762
668 1 20.4529 16.704 51.1626
717 1 2.8164 9.67397 53.7476
719 1 7.96535 10.5901 54.3421
650 1 9.69113 12.5433 51.4489
652 1 14.4101 12.4914 52.0704
723 1 18.1176 10.5256 53.8652
725 1 24.5324 10.2605 52.7022
726 1 27.8596 12.2444 54.5273
727 1 30.1189 10.2655 51.3411
690 1 5.45797 26.261 51.255
731 1 2.65235 14.7595 53.4911
733 1 7.31944 14.4784 53.9184
666 1 14.5987 17.037 51.8177
737 1 17.8313 14.2678 54.0163
739 1 24.5724 14.8879 52.8209
741 1 30.7902 14.5891 51.5363
745 1 3.07329 19.0968 54.0743
747 1 7.06758 19.6039 53.8388
730 1 0.424329 16.8577 56.2086
751 1 18.1219 18.7494 54.1735
753 1 24.1453 19.098 53.1308
755 1 30.1226 19.2805 51.8889
740 1 27.965 17.0362 54.5221
648 1 4.95241 11.9688 51.0491
759 1 2.71465 23.8291 54.2894
678 1 9.76899 21.7329 51.179
680 1 14.339 21.4491 52.5161
765 1 17.5759 23.8058 54.9014
767 1 23.8211 23.7538 53.2055
754 1 27.7857 21.6727 54.6765
769 1 30.1014 23.3647 52.0068
664 1 9.99216 17.6364 51.7327
1055 1 10.9458 5.91957 78.8313
692 1 10.12 26.4814 51.157
694 1 14.6722 26.0281 52.3325
742 1 34.136 17.2787 53.0955
773 1 1.95253 6.44486 60.1766
768 1 27.3612 26.1091 54.6771
770 1 33.6392 26.1593 53.8004
704 1 5.05888 8.02427 56.6475
706 1 9.38279 8.27982 58.1879
708 1 15.7006 7.97593 56.8507
710 1 21.5891 8.04357 55.5608
712 1 28.1699 7.80588 54.2977
716 1 0.405943 12.5532 56.3272
718 1 4.73218 12.3302 57.2413
720 1 9.55765 13.0361 57.6515
721 1 12.0284 10.4006 54.911
722 1 15.6808 12.6467 57.0327
724 1 21.6175 12.1828 55.3662
795 1 25.509 10.1596 56.9778
797 1 30.7441 10.4681 56.2583
734 1 9.50131 17.0983 57.8757
735 1 11.8084 14.7688 54.3925
809 1 25.6053 14.761 57.5983
811 1 31.3997 14.7708 55.9938
732 1 5.09425 17.069 56.8487
749 1 11.8643 19.1238 54.8393
736 1 15.0454 16.4949 57.0176
738 1 21.7728 16.9716 55.8687
823 1 25.3236 18.8455 57.6547
825 1 31.2815 18.8808 56.3063
2251 1 26.2465 28.4765 62.2164
761 1 7.24027 23.4814 54.6904
746 1 4.75501 21.5479 57.8387
763 1 11.6727 23.8934 54.9194
750 1 15.1469 21.2102 56.9701
752 1 20.9254 21.4233 55.3215
837 1 25.4783 23.5976 57.6254
839 1 30.9081 23.5492 56.4946
760 1 4.38484 26.2837 57.267
1072 1 20.6375 12.7934 79.203
764 1 15.3038 26.1056 56.9606
766 1 21.6816 26.0315 56.072
1042 1 13.0481 25.6523 75.7693
696 1 20.1926 26.1019 51.9796
968 1 0.622668 26.1634 73.4959
778 1 16.653 8.10242 61.2759
780 1 22.5399 8.01145 59.8612
951 1 33.4257 14.3019 65.4173
782 1 29.0555 7.87488 58.9987
787 1 2.03834 10.239 59.6327
789 1 6.42091 10.3182 60.3207
791 1 12.6112 9.8874 59.5006
792 1 16.2713 12.4011 61.0464
793 1 19.0696 10.4263 58.6723
794 1 23.0341 12.4958 59.8908
865 1 25.9504 10.346 60.9797
796 1 29.2205 12.6029 58.8528
867 1 31.9397 10.2187 60.2577
801 1 2.00101 15.2923 59.4991
803 1 6.54869 14.9398 59.7223
805 1 12.5987 14.5451 59.7079
807 1 19.0981 15.0808 58.6472
881 1 31.8081 15.0003 60.4278
815 1 2.15905 19.23 59.8194
817 1 7.07283 18.827 60.7624
819 1 12.7043 19.3451 59.3206
806 1 16.0897 17.0281 61.8111
821 1 18.7013 18.8634 58.2911
808 1 22.7868 17.2227 60.4018
810 1 28.9186 17.34 59.3715
895 1 32.5868 19.9185 60.8248
829 1 1.46342 23.0598 60.7739
831 1 6.23932 23.6458 60.5047
748 1 9.51325 21.3815 58.4026
833 1 12.971 23.7885 59.1809
835 1 18.6468 23.4185 58.8168
820 1 16.277 21.5472 61.134
822 1 22.3906 21.2775 60.3824
824 1 29.3159 21.122 58.9482
909 1 32.8009 23.809 60.4935
762 1 8.92677 25.9691 58.235
1105 1 33.5777 19.434 76.022
834 1 16.5341 26.2305 61.3454
836 1 22.4431 25.9006 60.3609
838 1 28.689 25.8018 58.9097
774 1 4.33987 8.5056 63.1722
776 1 10.3681 7.93535 62.2649
848 1 17.4088 8.2545 65.3048
850 1 23.7971 8.14663 63.4476
852 1 29.2326 7.93197 63.2919
705 1 7.58403 6.14329 54.3614
788 1 4.37372 12.9954 62.4976
790 1 10.3035 12.3199 62.1998
861 1 13.4865 10.0035 64.3118
863 1 20.2887 10.5767 62.6827
864 1 24.35 12.7157 64.3102
866 1 29.7292 12.8402 62.8451
937 1 32.7586 10.2202 65.1274
802 1 4.26014 17.4898 63.644
804 1 10.4196 17.0328 62.2369
875 1 13.8614 14.5752 64.1892
877 1 19.9877 14.4221 63.058
879 1 26.4959 14.7545 61.8766
843 1 1.75591 6.06466 66.3678
889 1 13.8369 19.22 64.0994
891 1 19.4831 18.6802 63.0305
893 1 26.5199 19.4423 62.179
878 1 23.3896 17.0461 64.9332
880 1 30.0029 17.2359 63.7794
1033 1 33.5831 19.0729 65.0504
816 1 4.18736 21.5822 63.4211
818 1 10.2325 21.7369 62.4229
903 1 13.9104 23.7572 63.7904
905 1 19.7819 23.8345 63.2062
907 1 25.6346 23.7746 61.6917
892 1 23.7305 21.8042 64.4065
894 1 30.0872 21.5648 63.4483
964 1 32.8828 23.6968 65.1128
830 1 4.5748 26.6092 63.2991
832 1 10.2964 26.3623 62.7957
1040 1 6.80625 26.0563 77.2514
906 1 23.2764 26.1829 64.9183
908 1 29.2739 26.1297 63.5002
703 1 2.45201 5.72563 53.2664
844 1 5.62987 7.96732 67.7983
846 1 11.6509 7.79274 66.8167
845 1 8.03289 5.73954 64.6569
702 1 0.346933 7.68892 56.203
922 1 30.1942 7.91991 66.8649
857 1 1.99798 10.2425 66.5415
859 1 7.94954 10.482 64.5454
858 1 5.9363 12.1394 68.1812
860 1 10.8299 12.7964 66.5357
931 1 14.9746 9.96708 69.0639
862 1 17.6225 12.5543 65.7076
933 1 21.3488 10.377 67.0266
935 1 27.276 10.2502 65.6545
936 1 30.6819 12.5851 67.5375
871 1 2.3034 14.817 66.4345
873 1 7.26394 14.8811 64.6017
872 1 4.98245 17.2973 68.0788
874 1 11.3408 16.4392 66.4745
945 1 14.7364 14.5548 68.8458
876 1 17.2582 16.6389 65.6234
947 1 21.1748 14.8599 67.586
949 1 27.4975 14.9399 66.0402
950 1 30.6453 17.225 68.2506
885 1 1.32639 19.047 66.6351
887 1 7.96445 19.5939 65.3037
959 1 14.5866 19.17 68.2503
961 1 20.8325 19.4229 67.2974
963 1 26.9667 19.5441 66.5121
899 1 1.68514 23.8612 66.1189
901 1 8.12389 23.7734 64.7132
886 1 5.56365 21.78 67.7776
888 1 11.1104 21.2408 66.6921
973 1 14.7814 23.8166 68.4268
890 1 17.5944 21.5134 65.6746
975 1 21.2125 23.3596 67.6463
962 1 24.7284 21.3448 69.137
977 1 27.0479 23.9657 66.0424
1035 1 30.5719 21.3822 67.7902
900 1 5.65647 25.7697 67.9081
902 1 11.3405 26.1839 66.5933
1059 1 23.4145 5.836 76.3199
904 1 17.2588 26.0584 65.4681
1061 1 29.245 5.78938 75.0311
2245 1 7.47214 28.3965 64.9752
978 1 31.0449 26.0601 67.7057
714 1 33.5894 8.85669 53.3441
2181 1 25.2693 28.1705 57.417
914 1 6.87087 8.53772 72.1868
2173 1 2.07454 28.2199 59.768
916 1 12.7306 7.64393 71.1842
918 1 18.4815 8.39379 70.0667
920 1 24.7678 8.27802 68.1549
2313 1 3.28576 28.1435 70.858
992 1 31.5824 7.26584 72.0876
927 1 3.09252 10.5879 71.1309
929 1 9.11474 10.3131 69.7528
930 1 12.3048 12.5436 71.1036
932 1 18.9367 13.039 70.2484
1003 1 21.7326 10.3201 71.7771
934 1 24.5395 12.6503 68.6211
1005 1 28.5945 10.42 70.2231
989 1 22.1675 5.99758 72.0083
1006 1 31.8734 12.6801 71.8795
941 1 2.58878 14.5781 70.7293
943 1 8.63617 15.0798 69.8709
1017 1 22.3416 15.0945 71.9936
948 1 25.0159 16.5845 69.3906
1019 1 28.3874 14.4445 70.8079
1118 1 30.9888 26.4855 78.3906
955 1 2.44923 19.111 70.4621
957 1 8.43821 19.6214 69.7872
944 1 12.7341 16.3572 71.8034
946 1 18.7793 17.2817 69.7704
1031 1 22.3167 19.5797 71.73
1020 1 28.0831 19.7856 70.4131
1063 1 34.0803 5.76009 75.6772
969 1 2.91406 23.4196 70.5422
956 1 5.9474 21.597 72.4773
971 1 8.80914 24.1255 69.4797
958 1 11.9271 22.0608 70.7958
960 1 18.0316 21.2094 70.4822
1045 1 22.2626 23.5827 71.3086
1047 1 28.1852 23.8464 70.5952
1034 1 31.8623 21.8709 72.4369
1007 1 33.6527 10.0935 69.1395
1104 1 30.9505 21.7457 78.4922
972 1 12.6045 25.9203 71.168
974 1 18.4398 25.7658 69.835
1100 1 20.5624 21.6239 79.1581
976 1 24.5249 26.1133 69.2403
1048 1 31.6323 25.978 72.4157
783 1 30.9182 5.80898 55.7182
986 1 13.6345 8.15756 75.7091
991 1 27.8694 6.71852 70.573
988 1 19.5635 8.24167 74.4279
990 1 25.7925 8.53458 73.3217
997 1 3.91624 10.2947 75.201
928 1 6.8684 12.5224 72.0988
999 1 10.1115 9.81501 74.3029
1001 1 16.0495 10.3942 72.8687
1002 1 20.4512 12.943 74.586
1004 1 25.6667 12.7591 72.8827
1075 1 29.3184 10.4285 74.8277
1077 1 33.7561 10.1257 75.2677
1011 1 3.79009 14.7037 74.7841
1013 1 9.16116 14.4653 74.3019
1014 1 13.3663 16.833 76.2032
1015 1 16.0195 14.3942 73.1057
1018 1 25.4528 17.1481 73.3352
1089 1 29.1566 15.1953 74.5066
1091 1 33.7068 15.017 75.583
1022 1 31.6323 17.5981 72.183
1025 1 3.75859 19.4788 75.1124
942 1 6.39743 16.9946 72.1909
1027 1 9.91087 19.3584 74.2217
1029 1 15.6868 19.0609 72.7429
1016 1 19.4242 17.1889 74.6199
1103 1 29.0067 19.6454 74.8938
1116 1 26.5971 26.5038 78.0328
2253 1 31.3631 27.8178 60.4911
1039 1 3.96138 24.0013 74.5189
1041 1 9.70059 23.658 74.0181
1028 1 12.9877 21.5387 76.1072
1043 1 15.4942 23.9571 72.9906
1030 1 19.4191 21.6868 74.49
1032 1 25.0399 21.5894 73.7277
1117 1 28.9648 23.8505 75.2098
970 1 6.47673 25.5528 72.7393
2105 1 7.62203 28.2983 54.7064
1044 1 19.5854 25.9011 74.465
1046 1 25.3123 26.3816 73.4365
1058 1 20.6716 8.11927 79.1674
982 1 1.33476 8.35013 78.0722
984 1 7.57385 7.68625 77.2428
2113 1 30.1614 28.147 52.3027
713 1 30.6213 5.74978 51.2954
1038 1 1.6611 25.8807 77.8598
1060 1 26.826 7.44355 77.7545
1062 1 31.5123 8.40631 78.3321
1119 1 33.6947 24.1863 75.3789
996 1 1.34795 12.7183 78.034
998 1 7.40362 12.5422 77.1236
1069 1 11.7654 9.77665 78.5547
1000 1 13.5916 12.7387 75.4394
1071 1 17.1552 10.4257 77.4857
923 1 33.379 6.19331 64.9844
1073 1 23.1807 10.5659 75.9776
1074 1 27.1381 12.7485 77.4079
1076 1 31.7399 12.4886 77.9591
1083 1 11.2503 14.6071 78.3186
1085 1 17.4321 14.4863 77.1707
1087 1 23.5604 15.0552 76.1309
1088 1 26.9059 17.1484 77.9785
1090 1 31.1545 17.2395 78.385
1010 1 1.43791 16.9922 77.7484
1012 1 7.31473 16.7519 76.8011
1097 1 10.5515 19.361 78.8063
1099 1 16.5984 19.0773 77.4505
1101 1 23.102 19.6421 76.5583
1024 1 1.41766 21.6724 77.7654
1026 1 6.89445 21.3715 77.2395
1111 1 10.571 23.722 78.6494
1113 1 16.9216 24.3921 77.5981
2183 1 30.9157 28.2856 56.5774
1115 1 23.0473 24.2343 76.077