ITEM: TIMESTEP
175000
ITEM: NUMBER OF ATOMS
16000
ITEM: BOX BOUNDS pp pp pp
3.6316000658655412e-01 1.0183683999341831e+02
5.7661217633575816e+00 9.6433878236639828e+01
-5.1767713835584388e+00 1.0737677138355903e+02
ITEM: ATOMS id type x y z
213 1 7.31961 5.69838 10.3136
215 1 11.7726 5.85097 10.6481
6 1 15.7595 8.11228 -4.77393
89 1 12.5965 10.669 -2.41756
10943 1 0.751615 7.8866 5.78557
8 1 19.4095 7.65974 -3.58131
10 1 23.4663 7.76878 -2.73561
12 1 28.7847 7.70642 -2.23201
14 1 33.1452 7.44358 -1.11076
85 1 3.5717 10.529 -3.4564
87 1 8.72999 10.4024 -3.1061
20 1 14.8733 12.5519 -4.83692
22 1 19.4823 12.1695 -4.16718
24 1 23.9923 12.1959 -3.24133
26 1 29.0327 12.2886 -2.53839
28 1 33.3797 12.2109 -1.55287
99 1 3.33399 15.2058 -3.18382
101 1 8.08365 15.0564 -2.47591
145 1 11.7464 5.95198 4.0599
10995 1 0.498542 26.0818 5.59102
103 1 12.6924 15.2554 -2.59782
36 1 19.9451 17.3114 -4.32366
38 1 23.7994 16.8674 -3.34104
42 1 33.422 16.6032 -2.54978
113 1 3.92744 19.3839 -3.34601
115 1 8.65896 19.5761 -2.76525
40 1 29.3068 17.1463 -2.331
127 1 3.92133 24.0239 -2.88894
129 1 8.46889 24.313 -2.74943
131 1 12.9008 24.4857 -1.67635
48 1 15.4715 22.2393 -4.6853
50 1 20.1269 21.2307 -3.88085
52 1 23.9516 22.2112 -3.26882
54 1 28.3644 21.8394 -2.65202
56 1 33.2587 21.2271 -1.79745
1687 1 15.6672 28.0668 17.2179
351 1 1.57268 5.72105 21.8575
350 1 30.9979 26.2655 22.8628
62 1 14.8969 26.8956 -4.01586
5900 1 33.6653 19.5063 19.9498
64 1 19.395 26.103 -3.7146
66 1 24.3626 26.1006 -3.15615
68 1 29.0155 26.3491 -3.12719
10878 1 1.06599 8.30933 -0.460599
72 1 5.7096 8.06352 0.0414795
76 1 14.4634 8.28649 1.12894
332 1 22.3777 21.637 21.1806
346 1 21.9464 26.2919 21.2045
10891 1 1.33594 12.3678 -0.146567
86 1 5.86618 12.839 -0.141151
88 1 10.621 12.5418 0.579749
90 1 14.579 13.0327 0.830653
91 1 17.0662 10.7853 -0.924198
93 1 21.5524 10.1411 -0.324886
95 1 26.2611 9.85318 0.0247674
97 1 30.3876 9.96528 1.21524
100 1 5.72127 17.1139 0.227085
102 1 10.4739 17.0531 0.542817
104 1 14.8131 17.1709 1.3113
105 1 17.0424 15.2196 -1.35223
107 1 21.4663 14.7748 -0.63927
109 1 26.1989 14.543 0.00919338
111 1 30.99 14.9243 0.523032
10904 1 1.32691 17.098 -0.13377
117 1 12.1374 19.7429 -1.7006
119 1 17.0585 20.0814 -1.61497
121 1 21.2755 18.7883 -0.0653286
123 1 26.0074 18.887 0.07702
125 1 29.9875 19.7907 0.70969
10917 1 1.79572 21.2692 -0.643988
114 1 5.9017 21.981 0.438025
116 1 10.1204 21.8293 1.01887
133 1 17.3479 23.7493 -1.03422
135 1 21.7145 23.4666 -0.258006
137 1 25.9407 24.4291 -0.105681
139 1 30.1171 24.0676 0.270543
10930 1 1.28094 25.7733 -0.0252213
128 1 5.64672 25.8625 1.12849
130 1 9.8393 26.5044 1.1819
132 1 14.3767 26.33 2.05966
34 1 15.1753 17.2336 -4.64017
1479 1 21.4778 28.3799 -0.647826
306 1 26.0048 11.9009 22.4441
70 1 32.8199 26.0324 -2.37152
5809 1 33.8285 10.2395 13.7357
5848 1 34.0907 23.9991 14.1633
74 1 9.93691 8.40341 0.7102
78 1 18.9215 7.84235 2.47139
322 1 30.8557 16.9632 22.8214
80 1 23.514 7.67867 3.32837
82 1 27.6882 7.89197 4.01958
84 1 32.2805 8.06828 4.60354
155 1 3.56053 10.2594 2.99783
157 1 7.50147 10.3491 3.6457
159 1 12.0001 10.7249 4.14868
161 1 16.5726 9.81895 4.97816
92 1 18.8034 12.6944 2.69156
163 1 21.0998 10.3733 5.90324
94 1 23.5478 12.3647 2.9999
96 1 28.0082 12.4432 2.99494
98 1 32.3636 12.8198 4.22904
169 1 3.12312 15.0194 3.53177
171 1 7.95194 14.9876 3.58503
173 1 12.5723 15.3542 4.45785
106 1 19.0217 17.3996 2.22991
108 1 23.5997 17.0157 2.69028
110 1 28.2359 17.1604 3.31597
112 1 32.5336 17.3793 4.15396
183 1 3.19611 19.8551 3.10864
185 1 7.50555 19.3262 3.84898
187 1 12.1087 19.4324 4.41502
197 1 3.28963 23.6552 3.15705
199 1 7.64635 23.7991 4.25026
201 1 12.0305 24.098 4.62377
118 1 14.7496 21.6769 1.1842
120 1 19.2128 21.9842 1.87626
203 1 16.7541 23.8396 5.40381
122 1 23.2969 21.4374 2.93335
124 1 27.6517 21.8159 3.45635
126 1 31.6805 22.0166 3.74606
344 1 17.0428 25.5885 20.886
73 1 7.9868 5.74607 -2.65671
1689 1 19.984 28.4894 18.3972
134 1 18.8554 26.1372 2.60709
136 1 23.6643 26.2747 2.61031
138 1 28.3328 26.2516 3.6594
140 1 32.9383 26.4295 4.82276
142 1 5.01698 8.46278 7.11765
144 1 9.7536 8.14572 7.09411
146 1 14.348 8.77758 7.89366
148 1 17.8621 7.8845 9.17492
409 1 5.39553 24.0706 22.9695
5757 1 34.0913 15.0641 6.93443
149 1 20.6936 6.17568 5.66514
156 1 5.45589 12.8312 5.99731
158 1 9.94087 12.6878 7.06834
160 1 14.3062 12.6974 7.8227
162 1 18.7351 12.5523 8.11978
165 1 25.0374 10.9431 6.36446
167 1 29.6766 10.2209 6.50679
174 1 14.2104 17.3541 8.22378
175 1 16.3194 14.8453 5.07299
177 1 20.9592 14.4624 5.66134
179 1 25.5491 14.9765 6.2074
181 1 30.2009 14.8988 6.74824
170 1 4.76938 16.855 6.44897
172 1 9.56073 17.4482 7.026
189 1 16.6738 19.5273 4.91611
191 1 21.1169 19.0946 5.92985
193 1 25.5295 19.5974 5.84775
195 1 30.3741 19.6841 6.54334
184 1 4.96535 21.3103 7.06811
186 1 9.73207 21.6965 7.10541
188 1 14.3746 21.3924 8.02013
205 1 21.2706 23.8279 5.69603
207 1 25.8799 24.0836 6.05872
209 1 30.4406 24.1742 7.09511
1473 1 7.80941 28.2831 -2.52627
198 1 4.86485 25.5475 6.87139
200 1 9.52599 25.9544 7.75078
202 1 14.2264 25.9524 8.38358
330 1 17.7312 21.8572 21.0394
204 1 18.6273 26.1426 9.03606
342 1 13.0076 26.3703 20.5862
1553 1 29.841 28.3796 7.45755
328 1 13.1489 21.6586 20.6107
326 1 8.50684 21.7514 20.2511
1611 1 2.63683 28.2164 9.09108
150 1 22.1592 7.98512 9.79562
152 1 26.7666 8.12717 9.8416
154 1 31.3089 8.70577 9.81435
225 1 2.11613 9.86737 9.79481
227 1 7.30915 10.3014 10.1507
229 1 12.039 10.6572 10.6219
231 1 16.511 10.4007 11.6314
233 1 20.3135 10.8493 11.9754
164 1 23.0086 12.492 9.26712
166 1 27.5391 12.8791 10.0756
168 1 32.3422 12.4567 10.1635
239 1 2.09518 14.38 9.04766
241 1 6.99098 14.9107 10.0029
243 1 11.6232 15.415 10.7224
245 1 16.1166 14.4771 11.695
247 1 19.9024 14.8298 12.0056
249 1 24.5471 15.1328 12.8059
180 1 27.3396 17.477 9.5947
182 1 31.8529 17.2973 10.263
253 1 2.65914 18.3716 9.97871
255 1 6.62388 19.0551 10.1578
257 1 11.1802 19.528 11.0606
176 1 18.0903 16.772 8.58581
259 1 15.7563 19.129 11.7759
178 1 22.7464 16.283 9.6561
261 1 20.4765 19.2516 11.6774
267 1 2.16752 24.0951 9.30941
269 1 7.04218 23.3344 10.3205
271 1 11.1387 23.8292 10.831
190 1 18.4562 21.2975 8.75596
273 1 16.1111 23.9543 11.7597
192 1 23.2206 21.6758 9.13868
194 1 27.5355 21.7329 9.69195
196 1 32.3081 21.6763 10.3174
1613 1 6.29994 28.4972 10.3069
206 1 23.3685 26.4711 9.23252
208 1 27.3375 26.4244 9.63345
210 1 31.8045 26.297 10.2516
212 1 4.70525 8.08774 12.8444
214 1 9.76076 7.97354 13.3454
216 1 13.6231 8.20489 14.4423
218 1 18.0487 7.88021 14.9517
220 1 22.5086 7.88784 15.1126
5913 1 33.9363 23.9885 20.2767
349 1 30.0003 24.2739 19.4251
295 1 1.92672 10.0892 16.1239
226 1 4.28323 11.7951 13.4031
228 1 9.35132 12.8422 13.5472
230 1 13.1036 12.4984 14.6814
232 1 17.66 12.4384 15.4811
234 1 21.9926 12.3121 15.3177
235 1 24.6527 10.4733 12.1489
237 1 29.4221 10.1841 12.7057
236 1 26.708 12.7345 15.3058
309 1 1.91925 15.4697 16.3674
311 1 6.439 15.2758 15.6834
248 1 22.2536 16.9038 15.2315
251 1 29.1294 14.8857 13.2256
75 1 13.0128 5.8286 -2.01864
240 1 4.03312 16.2276 13.0068
242 1 9.27055 16.9159 13.567
244 1 12.8515 17.7231 14.5834
246 1 17.7026 17.2062 15.2374
263 1 25.2358 18.7606 12.6534
265 1 29.987 19.5729 12.9266
1475 1 11.6653 28.3953 -1.27763
254 1 4.26369 21.875 12.7593
256 1 8.69361 21.5484 13.3934
258 1 13.9638 21.8048 14.1283
260 1 18.6844 21.6082 14.9142
275 1 21.0387 24.1319 11.6244
277 1 25.5913 23.56 12.7282
279 1 29.6451 23.8951 13.1361
348 1 26.4119 26.3082 22.0916
268 1 4.48321 26.1873 13.0338
270 1 8.76017 26.1725 13.7214
272 1 13.4047 25.4965 13.8814
274 1 18.4299 26.082 15.2639
395 1 5.40762 19.2544 22.7323
5822 1 33.8915 14.8921 13.8058
320 1 26.4167 17.4606 21.925
282 1 4.12235 8.07459 18.5873
340 1 8.11675 26.4103 19.9308
407 1 0.874287 24.2019 22.0678
324 1 3.60536 21.7809 19.1687
334 1 27.1021 21.6657 21.9835
222 1 26.4405 8.00188 15.8811
224 1 30.9857 7.9362 16.4659
296 1 4.18714 12.8 19.1234
297 1 6.57317 10.9697 16.6807
299 1 10.3903 10.0021 17.437
301 1 15.6064 10.2676 18.0206
303 1 20.1068 10.0021 18.4915
305 1 24.6494 10.5175 18.8551
238 1 31.0901 12.7895 16.7283
313 1 11.2702 14.3597 17.5873
312 1 7.98466 17.4137 19.2734
315 1 15.1095 15.0088 17.8229
317 1 19.8895 14.8057 18.6529
250 1 26.7814 17.4073 16.0355
319 1 24.1694 14.5893 18.7993
252 1 31.4365 17.1846 16.7848
323 1 2.07132 19.3086 16.082
310 1 3.54246 17.3033 20.0071
325 1 5.83922 19.0793 16.347
327 1 10.9094 20.0277 17.289
329 1 15.5854 19.6698 17.3101
331 1 20.1691 19.1438 17.639
333 1 24.64 19.366 18.9673
337 1 2.16231 24.4662 15.8396
339 1 6.70442 23.5844 16.3
341 1 10.3808 23.9952 16.737
343 1 15.1332 23.4692 17.5584
262 1 23.0322 21.547 15.1402
345 1 20.0721 23.662 17.9694
347 1 25.2222 24.0361 18.5497
264 1 27.8023 21.6465 16.0013
266 1 31.9556 22.0764 16.6672
338 1 4.13718 25.5523 19.1917
393 1 0.699712 19.3799 21.8132
276 1 22.9152 26.4136 15.2759
278 1 27.2405 26.4108 16.074
280 1 31.7779 26.6762 16.0669
284 1 8.47959 7.49668 19.7109
314 1 12.7366 17.1152 20.0044
286 1 12.573 7.70081 20.436
288 1 17.2046 7.95231 21.1037
290 1 21.8655 7.69767 21.4503
292 1 26.3997 7.65284 22.6085
335 1 29.3653 19.8128 19.106
5887 1 33.3423 14.8883 20.3954
365 1 1.2471 10.3183 21.7572
367 1 6.3298 10.2594 22.8203
298 1 8.19886 13.4041 20.0291
300 1 12.5342 12.1488 20.8212
302 1 17.2493 12.579 21.2734
304 1 21.9997 12.463 22.0414
143 1 7.13579 6.41614 3.58019
307 1 28.4829 10.1952 19.4967
5874 1 33.0983 10.3 19.9392
379 1 1.19198 14.7178 22.1499
283 1 6.8685 5.99348 16.4105
151 1 25.1387 5.69292 6.28742
316 1 17.1839 17.2873 20.8449
318 1 21.9321 17.2467 20.682
321 1 28.717 14.7752 19.2181
1481 1 26.348 28.2812 0.258704
1751 1 1.34807 28.1554 21.9315
1681 1 2.55937 28.3036 15.7718
381 1 5.99943 14.9451 22.5421
411 1 10.2336 24.0309 22.8538
13 1 30.8077 5.78143 -5.03746
352 1 2.97344 8.30678 25.4681
354 1 7.77973 7.82154 26.1364
356 1 12.3372 8.04375 26.4697
383 1 9.96469 14.6313 23.0813
6147 1 33.7038 14.9769 41.5777
6056 1 33.4293 5.94705 37.2979
366 1 3.37812 12.6361 25.4091
368 1 7.65164 12.4022 26.5646
632 1 0.931795 8.13239 50.4914
371 1 14.7061 9.70158 24.1902
373 1 19.8405 10.1311 24.3963
375 1 24.1391 9.45361 25.0848
377 1 28.8336 10.158 25.6366
5939 1 32.8984 10.3311 26.5084
463 1 0.768302 19.3526 28.1537
380 1 3.01735 17.4505 25.4853
385 1 14.8086 15.2347 23.3397
387 1 19.4161 15.6146 24.4405
389 1 23.5619 15.4371 24.7709
431 1 23.2503 5.73856 31.7255
399 1 14.4463 19.7418 23.4372
401 1 19.8842 19.2328 24.0446
403 1 24.3461 19.5115 25.1814
435 1 0.664447 10.0561 27.8935
394 1 2.19336 22.209 25.1801
493 1 4.20748 5.57486 35.0452
413 1 14.9367 24.2449 23.8374
415 1 19.6179 23.567 24.153
417 1 24.1412 23.9464 24.7202
419 1 27.9538 23.4058 25.2637
6173 1 33.79 23.9293 41.2709
5978 1 33.0923 23.7778 26.5619
408 1 3.26093 25.807 25.7034
410 1 7.83152 26.107 26.4033
503 1 27.4801 6.1239 37.9522
497 1 13.7197 6.00004 36.6802
336 1 31.5949 21.3019 22.8343
425 1 10.1126 6.07084 30.0189
660 1 1.2823 17.2957 50.0293
294 1 30.7001 7.85714 23.038
1963 1 4.07593 28.0446 41.188
698 1 26.2608 26.042 49.7577
358 1 16.9874 7.77639 27.3998
360 1 21.0198 7.63731 28.1347
362 1 25.7617 8.21108 28.5899
364 1 30.4738 8.01895 29.4432
639 1 16.9152 6.10036 49.8886
437 1 4.98912 10.4471 28.8139
439 1 9.67346 10.5728 29.5266
370 1 12.8623 12.6117 26.4048
441 1 14.3279 10.3881 30.2401
372 1 16.8056 12.9274 26.9229
374 1 21.2661 12.3618 27.3425
376 1 25.888 12.6447 28.2896
378 1 30.6142 12.7733 29.3038
433 1 27.9562 5.94109 31.836
382 1 8.27548 17.3357 25.8685
451 1 5.26297 14.8909 28.8859
455 1 14.0704 15.3564 29.9615
388 1 21.017 17.0824 28.0274
391 1 28.1258 14.9423 25.3356
5952 1 32.6918 14.9534 26.416
369 1 10.0688 9.79329 23.7814
465 1 5.28554 18.9114 29.0782
384 1 12.177 16.8637 26.654
467 1 9.88394 19.197 28.9263
469 1 14.3214 19.5467 29.562
386 1 16.4973 16.8658 27.3523
390 1 25.2222 16.9432 28.4205
405 1 28.4974 19.0713 25.6778
5965 1 32.7838 19.1949 26.5132
637 1 12.7387 5.9571 48.7745
396 1 7.54575 21.3909 25.675
479 1 4.96863 23.3691 29.047
481 1 9.59345 23.9696 28.9752
398 1 11.704 22.1002 26.1372
483 1 14.192 23.9392 29.6668
400 1 17.0984 21.558 26.6837
402 1 21.5813 21.5587 27.7294
404 1 26.1062 21.513 28.2479
406 1 30.0518 21.4124 28.8714
690 1 5.13694 26.3916 51.0839
412 1 12.487 26.6619 27.0152
414 1 17.0617 26.4094 27.6318
416 1 21.4138 26.1744 27.713
418 1 26.0852 26.3147 28.5442
420 1 30.0058 25.5656 28.6786
422 1 2.62587 7.91861 31.6984
424 1 7.25441 7.66562 32.2588
426 1 11.757 8.33062 32.9891
428 1 16.4609 8.03147 33.6531
5991 1 32.1652 6.07735 32.4073
6108 1 33.0542 23.8045 36.9895
436 1 2.08689 12.5442 31.4929
438 1 7.09817 12.841 32.5746
440 1 11.8404 13.1449 33.2351
443 1 18.3429 10.4294 30.817
445 1 23.0286 10.7762 30.9853
447 1 27.6902 10.636 32.0289
6004 1 32.2517 10.4292 32.6938
452 1 7.51806 16.9097 32.6672
453 1 9.84625 14.6765 29.248
454 1 12.0311 17.4628 32.895
456 1 15.8903 17.6438 33.1272
457 1 18.6866 14.9599 30.3998
459 1 22.9272 15.5771 31.6832
461 1 27.381 14.6221 32.1437
6017 1 32.3895 14.7469 32.7514
450 1 2.2586 17.5972 31.2924
471 1 18.4734 19.7422 30.7315
473 1 23.1888 19.5363 31.5349
475 1 27.829 19.3586 31.2256
392 1 30.0991 16.6254 29.0455
6030 1 32.3864 19.7184 32.3079
464 1 2.75591 21.6092 31.7029
466 1 7.6669 21.7409 32.2943
468 1 11.4895 21.3296 32.6142
485 1 18.6628 23.976 30.4658
470 1 15.9807 21.7095 33.2361
487 1 23.2871 23.9419 31.284
489 1 28.2287 23.7165 31.5144
6043 1 33.0597 23.638 32.4001
478 1 2.71894 25.929 31.182
480 1 7.52066 25.7844 31.8292
482 1 11.8595 26.0537 32.6368
1899 1 18.2352 28.1843 36.6868
501 1 22.9093 5.96046 37.5167
697 1 23.2275 24.3234 48.0776
533 1 0.360264 19.5025 34.4634
427 1 14.5111 6.31395 30.0706
430 1 20.9508 8.50748 34.1222
432 1 25.5084 8.73699 34.7065
434 1 30.1179 7.91274 35.3383
6160 1 32.8756 19.5542 41.2472
507 1 4.46763 10.5283 35.1063
509 1 9.07062 10.6335 35.7672
511 1 13.3812 10.6653 36.2401
442 1 16.271 13.619 33.7892
513 1 18.027 10.6436 37.0999
444 1 20.6441 12.8893 34.2286
446 1 25.4195 13.0156 35.3832
448 1 30.0307 12.624 35.2347
700 1 32.1916 26.2813 48.3033
521 1 4.53221 15.1678 34.7794
523 1 9.22 15.1854 35.7333
525 1 13.7256 15.3428 36.2579
527 1 18.1965 15.2772 37.3159
458 1 20.3561 17.2567 34.4475
460 1 24.8184 17.2567 35.1626
462 1 28.6881 16.6082 34.9312
6082 1 33.2798 15.2779 37.3687
308 1 30.3588 12.4781 23.1838
535 1 5.03137 19.1623 34.9192
537 1 8.97114 19.9889 35.3972
539 1 13.7928 19.1077 37.0668
499 1 18.2606 6.00067 37.1297
549 1 5.09246 24.3888 35.0419
551 1 9.35645 24.0967 35.8378
553 1 14.0564 23.5851 35.9785
472 1 20.5007 21.9397 34.2946
474 1 25.363 21.9092 34.8824
476 1 29.6976 21.2148 35.1888
484 1 16.3864 26.8589 33.4758
688 1 0.832812 26.1671 50.2736
486 1 20.4182 26.0418 34.1075
488 1 24.8857 26.7391 34.8244
490 1 29.5336 25.9288 34.6304
492 1 2.16796 8.23456 37.6761
494 1 6.67896 8.14953 38.2329
496 1 11.7788 8.22608 39.0866
498 1 15.8741 8.79373 39.6787
500 1 20.2776 7.88325 40.8364
504 1 31.4368 8.14144 39.8042
506 1 1.93838 12.4543 37.8407
508 1 6.59607 12.849 37.9002
510 1 11.1953 12.774 39.0341
512 1 15.6562 12.7233 40.2606
514 1 20.5485 12.5975 40.5992
515 1 22.787 10.6691 37.9458
517 1 27.6577 10.2723 38.2818
6069 1 33.8248 10.1713 36.4149
518 1 30.673 12.8761 39.8343
522 1 7.29085 16.9682 38.82
524 1 11.1632 17.403 39.6092
526 1 15.3592 17.339 40.3993
528 1 20.0929 17.2159 40.8782
529 1 22.6924 15.2261 38.4627
531 1 27.3207 14.7573 38.2944
520 1 1.83345 17.2211 37.8395
541 1 18.1973 19.5349 36.7959
543 1 22.5677 19.5001 38.1184
545 1 27.0836 19.2681 38.349
6095 1 32.5409 19.1419 36.5843
532 1 30.0678 17.1111 40.2357
534 1 2.13436 21.7529 37.4862
536 1 6.62822 21.5854 38.8715
538 1 11.3828 21.9792 39.4218
540 1 15.7217 22.0032 40.0332
555 1 17.8871 23.6345 36.7734
542 1 19.746 22.0929 40.6985
557 1 22.4962 23.8224 37.2797
559 1 26.592 23.9182 37.7377
546 1 29.8617 22.064 39.7791
548 1 2.13617 25.6239 37.2767
550 1 6.45041 26.1695 38.6492
552 1 10.9052 26.3931 39.7798
554 1 15.6257 26.7761 40.3456
556 1 20.1106 26.783 40.6594
1897 1 13.6954 28.3143 36.4402
560 1 30.5237 26.2788 39.3629
567 1 13.3018 6.06724 42.3932
562 1 1.21646 7.79696 43.8814
686 1 33.137 22.1949 49.1236
502 1 25.095 8.15959 41.0588
569 1 18.2119 5.76636 43.294
577 1 4.28721 10.4326 41.1885
579 1 8.862 10.1136 42.051
581 1 13.0078 10.7517 42.774
583 1 17.7314 10.3377 43.5504
516 1 24.9384 12.5947 41.5658
587 1 28.4928 9.94151 42.6898
1759 1 19.8488 28.3019 24.4528
591 1 4.27256 15.1314 41.2572
590 1 1.3641 17.01 43.6424
593 1 8.82739 14.029 41.8639
595 1 13.0217 15.1061 43.1901
597 1 17.8174 15.1429 43.549
599 1 22.3653 15.1529 44.2975
601 1 28.8294 14.8565 43.4824
605 1 4.10525 19.4937 41.1216
607 1 8.41765 19.4715 42.4928
609 1 12.7961 19.5955 43.1768
611 1 17.5514 19.7249 43.6349
613 1 22.2247 19.928 44.0802
530 1 24.4354 16.9104 41.6067
615 1 27.6238 19.4173 42.9813
619 1 3.91997 24.1547 41.226
621 1 8.65562 23.8031 41.8233
623 1 13.1493 23.6554 42.6052
625 1 17.2204 24.1983 43.302
627 1 21.8778 24.2744 43.4804
544 1 24.3573 21.4156 41.1489
629 1 28.0557 24.0442 42.4709
618 1 1.24122 26.5466 44.1
1895 1 9.24446 28.1232 35.5568
495 1 9.24177 5.85651 36.1669
558 1 24.1733 26.1781 40.8528
7291 1 31.8105 27.9889 32.1716
564 1 5.74284 8.49412 45.0662
566 1 10.5631 8.57127 45.3541
568 1 15.0752 8.35311 46.0684
570 1 19.8265 8.1645 46.8151
572 1 25.3358 8.28346 45.5715
695 1 17.9058 24.2266 49.7029
574 1 31.6179 8.38623 43.9381
576 1 1.73472 12.3088 43.8393
647 1 3.08129 10.7516 48.0241
578 1 5.94108 12.4184 44.9411
580 1 10.3983 12.7492 46.1422
582 1 14.9276 12.6934 46.2568
585 1 22.4553 10.5171 43.6418
584 1 19.9282 12.7391 46.7434
586 1 25.8761 12.154 45.9437
657 1 29.6571 9.92213 47.1668
588 1 32.1426 12.3735 44.2134
661 1 3.09091 15.1589 47.313
592 1 5.98687 16.3838 44.523
594 1 10.2246 17.2854 46.2749
596 1 15.0947 17.5694 46.6275
600 1 26.3014 16.1469 46.0481
671 1 30.3696 14.2499 47.2724
602 1 31.5571 17.1437 44.6017
598 1 19.7183 17.2568 47.0177
685 1 29.4424 19.9689 47.1254
689 1 3.58195 23.9493 47.2246
604 1 1.63273 21.8053 44.0813
606 1 6.12307 21.818 44.6544
608 1 10.5984 21.9483 46.2614
610 1 14.9432 21.9415 46.8162
612 1 19.4968 21.904 46.8141
614 1 25.3013 21.8933 45.78
699 1 28.9817 24.5479 46.5366
616 1 30.9479 21.6971 44.2003
620 1 5.9924 26.4488 44.7427
622 1 10.6033 26.5302 45.2056
624 1 14.9065 25.9097 46.7955
626 1 19.3502 26.5945 46.7434
628 1 25.3318 26.4903 45.4272
630 1 31.7378 26.3993 44.5974
691 1 8.0245 24.1632 48.4
635 1 7.5092 6.11251 47.8774
563 1 4.84832 5.8767 40.7969
1763 1 28.7069 27.8398 25.7152
641 1 23.3407 5.86616 48.6131
642 1 26.7885 7.78517 50.0437
644 1 32.5584 8.10308 49.8043
646 1 1.27996 12.9489 50.6726
2037 1 12.2242 28.3838 48.718
649 1 7.76668 10.1812 48.6792
651 1 12.5053 9.7412 49.1585
653 1 16.7087 10.897 49.7066
655 1 23.3919 10.4336 48.5192
656 1 27.3626 12.8695 50.3062
658 1 33.3296 12.3759 48.969
674 1 0.679447 21.8779 49.862
663 1 6.85792 14.8723 48.3461
684 1 27.0417 21.9686 50.0555
665 1 12.5403 14.4226 49.0017
667 1 17.5447 14.9432 49.4867
669 1 23.702 15.0853 48.6509
670 1 27.0313 17.2888 49.7246
675 1 3.30027 19.7092 47.7837
693 1 12.3544 23.7921 50.0509
677 1 7.78635 19.4089 48.3077
679 1 12.5175 19.8714 49.2422
681 1 17.4205 19.429 50.238
683 1 23.3342 19.8126 48.5105
672 1 33.1016 17.7151 48.8807
7356 1 32.793 28.3493 36.8683
7226 1 32.8981 28.2358 26.7988
1833 1 27.7868 28.3244 32.2071
1893 1 4.70372 28.2948 34.7641
1823 1 4.8921 28.0046 28.6798
1973 1 28.0683 28.1476 42.0745
2033 1 3.7702 28.3828 47.2131
1901 1 22.4825 27.962 37.9264
654 1 20.4106 12.7327 50.9231
397 1 10.071 19.1631 23.1386
705 1 7.43349 6.00241 54.6139
636 1 10.1921 7.71293 51.9419
638 1 14.0713 8.41518 52.691
1021 1 33.8874 14.5608 69.6905
1049 1 33.6308 23.2653 69.4592
712 1 27.8471 8.35363 54.602
714 1 33.7698 7.92142 53.9442
717 1 3.51318 10.184 53.9881
719 1 7.46595 10.3337 54.58
650 1 9.74597 12.5187 51.8671
652 1 14.75 12.3081 52.6514
723 1 17.9418 10.4628 54.3856
917 1 15.0584 5.91554 69.066
725 1 23.9617 10.2365 52.7935
726 1 28.2119 12.9956 54.9411
727 1 30.2217 10.3491 51.9317
696 1 20.7206 26.5367 51.2262
731 1 2.81912 14.7329 53.5379
737 1 18.6473 14.5023 54.0589
781 1 24.8083 6.04255 57.2361
739 1 24.5153 14.8256 53.6445
741 1 30.669 14.8304 51.4361
745 1 2.84177 19.0707 53.72
747 1 7.4113 19.1484 54.8404
666 1 15.2492 16.1881 52.6214
751 1 18.2353 19.5744 54.1627
753 1 24.6791 19.3178 52.1948
740 1 27.5822 16.9617 54.5054
755 1 30.0222 18.8954 51.7934
634 1 5.71401 7.64205 51.1753
759 1 3.17264 24.2614 53.8645
761 1 7.34707 24.3608 54.36
678 1 8.9575 21.4526 52.2423
680 1 15.0541 21.18 52.7826
765 1 18.2337 24.0259 54.4386
662 1 5.14088 16.8684 51.2731
767 1 24.0527 23.9115 53.049
754 1 27.8126 21.5532 53.9118
769 1 30.2996 24.0258 51.3309
756 1 33.6059 21.6188 53.1877
744 1 0.459821 21.3987 56.9919
2181 1 25.1777 28.4151 57.042
692 1 9.82379 26.2154 51.8695
694 1 14.5776 26.0067 52.602
1040 1 6.59372 26.1134 77.1881
2253 1 32.6985 28.3972 60.1602
768 1 28.3524 26.0551 53.9228
730 1 0.569556 17.6251 56.5187
6537 1 33.7593 19.2393 69.0632
770 1 34.1217 25.5369 53.3509
704 1 4.81624 7.95096 57.7451
706 1 9.30446 8.21591 58.3682
708 1 15.6282 7.58504 56.7272
710 1 21.616 7.90336 55.8439
2461 1 29.3748 28.1331 75.1804
1038 1 1.56335 26.4556 78.5281
1057 1 17.058 5.95403 77.8063
718 1 5.06282 12.4544 57.1473
720 1 9.98018 13.3343 58.3854
721 1 12.1611 10.3521 55.2125
722 1 15.2315 12.2224 57.9268
724 1 21.2263 12.6584 55.8616
795 1 25.477 10.5486 56.9547
797 1 31.2445 10.8711 56.4774
732 1 4.31254 17.0121 57.6425
733 1 7.17704 14.8345 54.9711
734 1 9.41439 17.8128 58.2631
735 1 11.5696 14.7843 55.1439
738 1 22 17.1674 55.8464
809 1 25.4758 15.2002 57.9368
811 1 31.411 15.2921 56.1829
749 1 12.0218 19.0953 54.3269
736 1 15.4949 16.5559 56.6665
823 1 25.5804 19.2962 57.3351
825 1 31.2962 19.1791 56.3842
1099 1 16.6179 20.3311 77.127
746 1 5.02261 21.4672 57.1628
763 1 12.193 23.78 54.8645
750 1 15.716 21.31 56.471
752 1 21.9167 21.7745 56.1251
837 1 25.7309 23.8351 57.1687
839 1 30.7967 23.8888 56.2753
760 1 4.58146 26.6534 57.5149
764 1 15.8413 25.7908 56.9997
851 1 26.25 5.95163 61.806
766 1 21.9488 26.3382 55.9369
709 1 17.9251 6.54791 53.8345
742 1 33.8626 17.1116 53.7001
664 1 9.57403 16.8642 51.7442
1076 1 31.3165 12.6441 78.865
778 1 17.3558 8.29489 62.226
780 1 23.0648 7.87073 60.2957
782 1 28.4303 8.36197 59.5076
787 1 2.58024 10.1086 60.1951
789 1 6.53636 10.7734 61.1678
791 1 12.5903 9.79356 59.2758
793 1 19.7683 9.96177 58.7581
792 1 16.0887 12.7541 61.8045
794 1 22.6054 12.6214 60.2964
796 1 28.7452 12.5785 59.4555
867 1 32.4088 10.1762 61.0673
801 1 2.00994 14.9438 59.9996
803 1 6.75321 14.6959 60.8423
805 1 13.1783 15.412 59.7857
807 1 19.1211 14.5687 58.7094
810 1 28.4269 17.1794 59.2645
881 1 31.8727 15.2407 60.872
815 1 2.66804 19.3932 60.5658
817 1 6.93153 19.2519 60.7222
819 1 13.0667 19.1077 59.422
821 1 19.3631 19.0126 58.3046
806 1 16.4885 17.246 61.2581
808 1 22.4166 17.2843 60.4958
893 1 26.3857 19.1427 61.9727
895 1 31.8101 19.0299 60.176
829 1 2.54453 23.7014 60.5033
831 1 6.61981 24.0462 60.7058
748 1 9.60157 21.6491 57.5855
833 1 13.4592 23.8028 59.1872
835 1 20.0856 24.1242 58.5689
822 1 23.14 21.6447 60.2495
824 1 28.9917 22.0513 59.2696
909 1 32.3958 24.2244 59.9903
676 1 5.14435 21.6769 51.416
762 1 9.79178 26.0908 57.6392
834 1 16.7611 26.1353 61.0311
836 1 23.1347 26.4582 60.3578
1077 1 34.0733 10.0809 76.2539
1014 1 13.6655 16.8093 75.6111
838 1 28.4722 26.5355 58.5123
774 1 4.82464 8.37934 63.9958
776 1 11.491 8.40767 62.4819
845 1 7.93386 6.37595 64.8696
850 1 23.6759 7.91661 64.8605
1111 1 10.7231 23.7698 78.9102
852 1 29.7214 9.63502 64.0939
668 1 21.4688 17.0503 51.3326
788 1 3.99245 12.5605 63.8262
790 1 10.7687 12.8939 62.3183
861 1 14.3074 10.8191 64.673
863 1 20.2259 10.517 62.9603
865 1 26.4853 10.5903 62.2301
864 1 23.843 12.4993 64.9555
866 1 29.6512 13.1339 64.5695
937 1 33.5369 10.3427 65.7076
804 1 10.3489 17.1701 62.6934
875 1 14.52 14.9587 64.4653
877 1 20.4235 14.9776 63.0522
879 1 25.9336 14.9447 62.5624
878 1 23.314 16.8785 64.923
880 1 29.7132 17.0236 63.5586
951 1 33.3944 14.6654 65.2372
802 1 3.89094 17.2125 63.6048
889 1 14.0771 19.7329 64.3117
891 1 20.0915 19.6961 63.205
1033 1 33.421 19.4308 64.9618
816 1 4.21907 21.883 63.7008
901 1 7.62932 23.7508 64.9273
818 1 10.5269 21.7222 62.2312
903 1 13.7719 23.994 63.4631
820 1 16.8117 21.5904 60.9426
905 1 20.4209 23.8871 63.2158
907 1 26.1474 23.7381 61.4658
892 1 23.6865 21.7151 65.0747
894 1 30.1349 21.4547 63.7797
830 1 4.4052 26.3759 64.1429
832 1 10.131 25.6737 62.379
921 1 27.234 5.73355 66.228
904 1 17.5009 25.8801 65.3059
906 1 24.0742 26.3273 64.7564
908 1 29.8615 25.7097 62.6334
843 1 1.99793 6.14389 65.7185
844 1 5.53228 7.89627 68.5708
846 1 11.5135 8.00946 67.1205
848 1 17.7518 7.80583 65.9084
640 1 20.3108 8.26881 51.3517
920 1 24.2344 7.57968 69.3486
1059 1 22.8669 5.84624 76.6974
922 1 31.3562 7.8044 68.1211
857 1 1.29975 10.2374 66.4099
859 1 8.0011 10.2478 64.9723
858 1 5.08765 12.4866 68.089
860 1 10.9019 12.7948 67.0905
931 1 14.1875 10.2341 69.4868
862 1 18.1399 12.2936 66.0106
933 1 21.281 10.2509 67.2656
935 1 27.1437 9.82455 66.8599
936 1 30.6784 11.8896 68.0141
871 1 1.5046 15.0616 66.747
873 1 7.68906 14.8286 65.3871
945 1 14.9208 14.3539 68.4877
876 1 17.3641 17.4808 65.9663
947 1 20.8057 14.8679 67.6593
949 1 27.1372 14.8198 67.0561
885 1 1.2598 19.26 66.1906
887 1 7.68872 19.4584 65.3679
874 1 11.3121 17.0197 67.2149
959 1 15.1034 19.3183 68.7288
961 1 20.7722 19.4701 67.969
963 1 27.3373 19.4235 66.8045
950 1 30.8729 16.7693 68.09
899 1 1.79152 23.7446 67.0088
886 1 5.04161 21.6309 68.4728
888 1 11.2067 21.1681 66.8639
973 1 15.041 23.677 67.9284
890 1 17.5383 21.7706 65.6026
975 1 20.9276 24.3124 67.779
977 1 26.8551 23.8093 66.1423
1035 1 30.4057 21.4842 68.158
964 1 33.2443 24.0123 65.5041
900 1 5.25785 26.3912 68.0542
902 1 11.0043 25.8178 66.7887
2319 1 20.754 28.3189 67.1942
978 1 30.5354 25.4238 68.3318
1119 1 33.77 23.6917 76.2806
916 1 12.2881 8.12428 72.0943
1104 1 31.4535 20.925 78.5717
918 1 18.3757 8.21058 70.4805
2321 1 27.6989 28.2528 65.5397
1010 1 1.72925 16.9262 78.5774
927 1 3.30219 10.225 71.5011
929 1 9.20257 10.2659 69.5283
930 1 12.465 12.6104 71.8106
932 1 18.4841 12.2518 70.6001
1003 1 22.4861 9.86841 71.877
934 1 24.1906 12.194 69.6596
1005 1 28.085 10.235 71.3729
941 1 2.23517 14.6963 70.6696
943 1 8.61969 14.4408 69.9516
944 1 12.1424 17.4389 71.2289
1017 1 21.5414 14.9971 72.3126
1019 1 28.1761 14.383 70.9665
955 1 2.47275 19.3121 71.5207
872 1 5.11327 17.3515 68.1078
957 1 8.00415 19.2367 69.5685
946 1 18.2697 16.5027 70.4904
1031 1 21.231 19.6546 71.9904
948 1 24.498 17.0065 69.6227
1020 1 28.3089 18.9452 71.3716
1118 1 31.5781 26.8625 78.8511
1022 1 32.4753 16.765 72.6597
969 1 1.86779 23.6248 70.9554
971 1 8.31815 23.5326 69.6571
958 1 12.4505 22.2442 71.2846
960 1 18.5161 21.9893 69.9411
1045 1 21.6146 24.2016 72.4378
962 1 24.3657 21.7811 69.4441
1047 1 28.0861 23.5487 70.6263
1025 1 3.54611 19.396 76.0466
1034 1 32.2285 21.2823 72.5707
1102 1 27.1474 21.002 77.5479
972 1 12.5733 26.1019 71.2043
974 1 17.932 26.588 70.5762
976 1 24.2051 25.7711 69.3242
1026 1 7.68061 21.2015 76.5882
914 1 6.80036 8.18809 72.4507
1024 1 1.08385 21.5953 77.9911
988 1 19.5618 8.23347 74.2404
990 1 25.9684 8.06625 73.8813
992 1 31.8144 7.77989 72.7484
997 1 4.21646 9.79871 75.4354
928 1 6.37323 12.8977 72.5203
999 1 10.1343 10.5647 74.2422
1001 1 16.1514 10.0343 73.7947
1002 1 19.7743 12.4706 74.9306
1004 1 26.1541 12.6487 73.8191
1075 1 29.0617 10.3529 75.5429
1088 1 27.0989 16.481 78.1428
1006 1 31.996 12.6167 72.4737
1011 1 3.55568 14.3622 74.9528
1013 1 9.72105 15.3142 74.3389
1015 1 15.8624 14.6014 73.1493
1089 1 29.6868 14.8489 75.805
942 1 5.61635 17.4648 72.2043
1027 1 9.62893 19.7593 73.1162
1029 1 15.7305 19.865 72.8693
1016 1 19.1061 17.7084 75.0003
1018 1 25.5238 16.6189 73.9987
1103 1 29.4681 18.5058 75.1906
648 1 5.87248 12.178 51.3495
1116 1 27.2505 25.6628 77.7225
1039 1 3.93294 23.992 75.1978
956 1 5.67067 21.3885 72.5481
1041 1 9.51679 23.8897 74.167
1043 1 15.925 23.7883 73.3096
1030 1 19.1691 22.242 74.947
1032 1 25.1524 21.4708 73.4759
1117 1 29.4124 22.8229 74.8464
1101 1 22.8299 19.4258 76.4972
970 1 6.447 25.7093 72.5438
1042 1 13.6399 26.0773 75.8043
1044 1 19.6235 27.0266 74.2873
777 1 13.7901 6.20386 60.1277
1046 1 25.7198 25.3583 74.286
1048 1 31.5042 25.9786 72.7253
982 1 1.72394 8.27858 77.9528
984 1 7.67302 7.68471 77.0858
1115 1 22.8765 23.8686 76.7583
986 1 13.5711 8.2306 76.6132
2385 1 9.66359 28.2073 74.4448
1113 1 17.5171 24.6911 77.6927
1060 1 26.4946 7.98781 78.4079
1062 1 31.1281 7.76938 78.8098
996 1 1.44475 12.6557 78.4048
998 1 7.60119 12.5832 76.6257
1069 1 11.1541 10.2678 78.6742
1000 1 14.141 12.6399 75.9675
1071 1 17.4068 10.4795 78.0359
1028 1 12.771 21.5414 75.9539
1073 1 23.148 10.3159 76.5616
1074 1 26.5765 12.256 78.4025
1097 1 11.4379 18.9755 78.6501
1012 1 7.38014 17.0942 77.2297
1083 1 10.9028 14.8834 78.6748
1085 1 17.8 14.916 77.345
1087 1 22.9932 14.8782 76.6989
1061 1 29.3356 5.86873 75.2129
1090 1 31.8412 17.0946 79.0109
2179 1 19.2429 28.5509 58.4997
2175 1 6.72634 28.1876 60.302
2463 1 34.1681 27.98 75.9935
2459 1 23.0837 27.9997 75.8021
2391 1 28.5319 28.2458 71.1455
923 1 32.9606 6.2481 64.9506
775 1 7.66299 6.24534 60.9166
713 1 29.9629 6.07025 51.7628
2323 1 33.0122 28.1412 64.6354
2183 1 31.5953 28.0485 55.5051
2317 1 14.8407 27.6139 68.6052
2315 1 9.35312 28.2451 69.848
2243 1 1.39198 28.3481 66.5078
2245 1 7.79391 28.3349 65.7354
2113 1 30.6169 28.2715 51.6525
2177 1 13.299 28.3232 59.9678
2111 1 24.3144 28.3656 52.7224
2173 1 2.26159 28.3334 60.6504
2107 1 11.9691 28.1936 55.536
783 1 31.1866 6.10767 56.512
682 1 21.2936 21.7809 51.3589
1263 1 7.83424 6.64114 92.9178
1054 1 8.57106 7.71585 81.7797
1056 1 14.8873 8.16369 80.3307
1261 1 2.25982 6.10218 93.8587
1114 1 21.3457 25.9717 79.6538
1067 1 5.51282 10.3438 79.2857
1068 1 8.43802 12.4077 81.8166
1070 1 14.952 12.72 80.5313
1141 1 18.6544 10.3075 82.0809