ITEM: TIMESTEP
130000
ITEM: NUMBER OF ATOMS
16000
ITEM: BOX BOUNDS pp pp pp
3.4373611340178911e-01 1.0185626388660133e+02
5.7080701759344095e+00 9.6491929824065238e+01
-5.1705106057077401e+00 1.0737051060570707e+02
ITEM: ATOMS id type x y z
32 1 10.4785 17.265 -4.96854
46 1 10.3275 22.0689 -5.30414
6 1 15.4305 7.75 -4.47838
10995 1 0.636153 26.1569 5.64377
8 1 19.6014 7.39176 -4.10353
10 1 24.1042 8.09387 -3.54154
12 1 28.1017 7.88073 -2.8355
14 1 32.5763 8.13453 -1.96497
85 1 3.82985 10.4504 -2.43457
87 1 7.70043 10.4112 -2.61565
20 1 14.9036 12.4036 -4.6042
89 1 12.3747 9.94202 -1.78136
22 1 19.2157 12.3213 -4.30199
24 1 23.5929 12.3318 -3.2586
26 1 28.3729 12.6221 -2.54884
28 1 32.6781 12.5056 -1.83119
99 1 3.36748 14.8725 -2.95726
101 1 7.62483 15.251 -2.45617
103 1 12.3785 14.7876 -1.79811
34 1 15.054 16.9722 -5.23649
36 1 19.4786 16.872 -4.29824
38 1 23.9857 17.1993 -3.98585
40 1 28.955 17.2148 -2.65932
42 1 33.1427 17.1936 -2.37977
211 1 2.07809 5.79932 9.5677
113 1 3.7795 19.6128 -2.63966
115 1 8.14488 19.361 -2.09702
117 1 12.7831 19.2946 -1.83165
4 1 10.2625 8.23953 -4.91183
127 1 3.70132 23.6815 -3.1474
129 1 7.58375 23.7666 -2.33965
131 1 12.3726 23.9402 -1.59206
48 1 14.5533 21.3782 -4.50439
50 1 19.2523 21.5017 -4.20508
52 1 23.8033 21.7565 -3.15284
54 1 28.2224 21.4586 -2.70669
56 1 32.7772 21.7454 -2.23143
5731 1 34.4157 5.74736 7.73797
143 1 7.32886 5.80663 4.03874
5757 1 34.1359 15.0706 7.59213
5796 1 34.0396 5.76357 13.5782
62 1 14.7417 26.234 -4.66631
64 1 19.1933 26.0142 -4.19408
66 1 23.9508 26.3836 -3.65342
68 1 28.5677 26.1923 -2.94418
70 1 33.0957 26.3543 -1.98742
5744 1 34.11 10.4255 7.70123
10878 1 0.468556 7.81858 -0.290485
72 1 5.21661 7.72722 0.294637
74 1 9.77284 7.93408 1.51259
10891 1 0.668686 12.5681 -0.0740113
88 1 10.1326 12.5132 0.699788
90 1 13.9027 12.1728 1.67465
91 1 17.3145 10.3034 -1.40409
93 1 21.2048 10.2642 -0.816041
95 1 25.5222 10.1628 0.355464
97 1 29.6427 10.3842 0.935971
10904 1 0.710604 17.0548 -0.377885
86 1 5.4332 12.7331 0.72583
105 1 16.6556 14.9744 -1.08182
107 1 22.3442 14.5313 -0.403759
109 1 26.3969 14.6911 -0.0878811
111 1 30.5452 14.9074 0.978218
100 1 5.18125 17.193 0.938054
102 1 9.92755 16.5096 0.790923
104 1 14.5861 16.9637 1.6113
119 1 16.7523 19.2848 -1.96697
106 1 19.0783 16.7912 2.20279
121 1 21.25 19.1718 -0.707222
123 1 25.9875 19.0641 -0.156615
125 1 30.6452 19.3661 0.844265
10917 1 0.761281 21.0187 -0.568282
114 1 5.61607 21.7635 0.40328
116 1 10.1777 21.4686 1.05922
118 1 14.9198 21.4303 1.70233
133 1 16.94 23.7662 -1.41467
135 1 21.3103 23.8396 -0.585463
137 1 26.0424 23.7571 -0.481271
139 1 30.3303 23.4425 0.97981
10930 1 0.507697 26.2261 -0.552057
128 1 5.61246 25.9178 0.328816
130 1 10.0446 26.3066 0.572083
294 1 30.5565 8.46267 22.3491
5835 1 33.9168 19.3224 13.6079
76 1 14.6277 7.88351 1.79765
78 1 19.2919 8.0395 2.32464
80 1 23.0749 8.44442 3.00288
82 1 27.8453 7.8511 3.58897
84 1 31.9935 7.7364 4.31863
155 1 3.38655 10.327 2.97716
157 1 7.24464 10.3425 3.65536
159 1 11.2932 10.1159 4.12771
161 1 15.9715 10.0142 4.69692
92 1 18.9429 12.7152 2.36811
94 1 23.4887 12.6261 2.84048
96 1 27.6485 12.6528 3.58056
98 1 32.5727 12.8961 3.91575
169 1 3.17842 14.29 3.72574
171 1 7.89977 14.8608 3.95501
173 1 12.44 14.7617 4.33218
175 1 17.0685 14.3128 5.19984
108 1 23.8148 17.3361 2.78679
110 1 28.3812 16.8816 4.23774
183 1 2.78026 19.1956 3.23184
185 1 7.68822 19.395 3.95665
187 1 12.1925 19.4678 4.76353
189 1 16.7137 19.4821 5.07386
112 1 33.0086 17.0454 4.31782
197 1 2.39494 23.5464 2.97601
199 1 8.05605 23.9773 3.89685
201 1 11.7634 23.8975 4.05811
120 1 19.4287 21.3967 1.8281
122 1 23.5827 21.3556 2.8237
124 1 27.6957 21.3965 3.29547
126 1 32.4386 21.1652 4.03516
132 1 14.7476 26.1066 1.4169
5783 1 34.2777 23.6523 7.57959
134 1 18.6608 26.1847 2.19685
136 1 23.3422 25.9432 2.81365
138 1 28.0109 26.1325 3.03768
140 1 31.7978 25.7613 4.13759
381 1 5.83623 14.3599 22.633
142 1 4.9867 7.44571 6.47876
144 1 9.65404 7.81094 6.74349
146 1 14.0059 8.07115 8.51035
148 1 17.9925 7.93847 8.27117
340 1 8.31779 25.9472 19.8354
10969 1 0.382914 17.4755 5.80381
348 1 26.886 26.1561 22.1131
10956 1 0.664118 12.2825 6.30954
156 1 5.29679 12.2393 6.71653
160 1 14.2194 12.8016 8.24204
162 1 18.7174 12.5828 9.11443
163 1 21.146 10.2219 5.85329
165 1 25.8345 10.6375 6.58967
167 1 29.7249 10.05 6.86873
158 1 9.96907 12.0869 7.22863
174 1 14.3894 16.8254 7.94795
177 1 20.4876 14.6516 6.36875
179 1 24.9589 15.0882 6.70997
181 1 29.4457 13.9092 7.43786
170 1 5.08237 16.8575 6.91537
172 1 9.8112 17.2623 7.24684
191 1 21.0384 18.9598 5.59409
193 1 25.5939 19.816 6.20801
195 1 30.4113 19.8758 6.85409
184 1 4.62865 21.512 6.62181
186 1 9.36515 21.6387 7.54971
188 1 13.8106 21.5393 7.74425
203 1 16.2578 23.9193 5.30401
205 1 20.5297 23.6242 5.67526
207 1 25.2481 24.0887 5.96213
209 1 29.7515 23.7207 6.81024
1619 1 19.7355 28.5028 12.136
198 1 4.70412 25.9458 6.20511
200 1 9.04919 26.2791 7.1554
202 1 13.6783 26.0591 7.54172
204 1 18.1397 26.6697 8.316
5848 1 33.8503 23.9634 13.9467
283 1 6.44225 5.93519 16.0549
1553 1 29.7918 28.3696 6.86942
338 1 4.34583 25.8475 19.0938
225 1 2.41982 9.8265 9.59739
150 1 22.4307 8.03125 8.86194
152 1 27.1653 7.77401 10.0614
154 1 31.4199 7.27295 10.088
1471 1 3.31716 28.2977 -3.04037
227 1 7.77073 10.6248 9.91164
229 1 11.4064 10.5108 10.9013
231 1 16.0072 10.2872 11.7442
233 1 20.5289 9.89011 12.6659
164 1 23.1112 12.4907 9.51714
166 1 27.2886 12.5314 10.0968
168 1 31.932 11.9118 10.555
239 1 2.59083 14.2309 9.67963
241 1 6.89572 14.9857 10.1827
243 1 11.4933 14.5064 10.5815
176 1 18.1479 17.2217 8.60303
245 1 16.0982 15.127 12.1024
247 1 20.5139 14.4894 12.6645
178 1 22.7352 16.6872 9.79754
180 1 27.4381 17.2117 9.61578
182 1 31.9667 16.6336 10.4825
253 1 2.24541 18.8763 9.36109
255 1 6.80667 19.6203 10.2866
257 1 11.6569 19.0648 10.9299
259 1 16.2171 19.0616 11.7343
261 1 20.7056 19.8649 12.6811
267 1 2.19603 23.5018 9.32006
269 1 6.7286 23.5747 10.1759
254 1 4.67848 21.3205 12.6992
271 1 11.0686 23.1249 10.6464
190 1 18.672 21.511 8.70323
273 1 15.726 23.6486 11.3061
192 1 22.6266 21.2709 9.18477
275 1 20.4719 24.3163 11.9134
277 1 24.7394 23.5193 12.4847
194 1 27.2112 22.1486 9.57005
196 1 31.3838 21.275 10.5159
1475 1 12.2244 28.24 -2.41682
10982 1 0.880389 21.5029 5.9044
346 1 21.4643 26.175 21.4232
206 1 22.5717 26.02 9.16812
208 1 27.1126 26.0181 9.78019
210 1 31.5023 26.0477 10.5171
212 1 4.22642 7.71272 13.5108
214 1 8.80402 7.78541 13.6964
216 1 13.0632 7.6405 14.1809
218 1 17.6759 7.92214 15.0588
220 1 22.4529 7.69458 15.3703
222 1 26.9664 8.022 16.0323
223 1 29.2878 5.70777 13.4878
226 1 4.42604 12.4399 12.8215
228 1 8.47302 12.5673 13.9194
230 1 13.428 12.1828 14.2139
232 1 18.1166 12.5422 15.2612
234 1 22.5155 11.768 15.961
235 1 24.9412 10.2544 12.3254
237 1 29.2978 9.8734 13.6633
5809 1 33.7534 10.195 13.7057
309 1 1.66941 14.4006 15.7852
240 1 4.3771 16.502 12.8636
244 1 13.1675 16.7274 14.4098
246 1 18.173 17.2655 15.6325
249 1 24.4162 14.7475 12.9335
251 1 28.959 14.5398 12.9164
5822 1 33.5455 14.6877 14.64
323 1 1.88433 18.9552 15.6565
242 1 9.03458 17.0833 13.7211
248 1 22.4666 16.9601 15.7459
263 1 24.8018 19.4298 12.6596
265 1 29.3106 19.1079 13.3653
289 1 20.0167 5.71336 18.4575
256 1 8.35432 21.1115 13.9358
258 1 14.1681 20.9864 14.5607
260 1 17.7732 22.1281 15.0315
262 1 22.4692 21.1666 15.8247
279 1 29.3518 23.7517 13.1447
293 1 29.0589 6.0314 19.477
306 1 26.3002 12.4201 22.8344
268 1 3.87532 25.9478 13.2206
270 1 8.75152 26.2453 13.4399
272 1 13.5125 25.6486 13.8171
274 1 17.7417 26.0642 14.7478
151 1 25.2427 6.72943 6.62002
344 1 17.1356 25.9424 21.282
73 1 8.14656 5.93567 -2.65457
224 1 31.2298 7.7859 16.8115
295 1 1.81931 10.2206 15.2409
296 1 3.41146 11.7231 19.0525
297 1 6.1195 10.0902 16.7977
299 1 10.7559 10.2883 16.9354
301 1 14.8521 9.91704 17.7295
303 1 19.8906 10.1216 18.4918
305 1 24.2051 10.1202 19.1724
236 1 27.0276 13.1633 16.6722
307 1 28.7871 10.7237 19.4971
238 1 31.1021 12.2066 16.545
310 1 3.68316 16.5851 19.3391
311 1 5.88398 14.4726 16.5096
313 1 10.3939 14.9084 17.0197
315 1 15.3181 14.5721 17.8739
317 1 19.9306 14.4111 18.396
319 1 24.6667 14.8457 19.4234
252 1 30.7656 17.7532 16.712
325 1 5.91777 19.1873 16.5463
327 1 11.0136 18.9851 16.785
329 1 15.5196 19.069 17.8671
331 1 20.2488 19.1438 18.2505
333 1 24.3407 18.9389 19.4786
250 1 27.0758 16.8907 16.108
337 1 1.56359 23.6845 16.1373
324 1 3.91422 21.1241 19.3139
339 1 6.27881 23.4489 16.3205
341 1 10.8913 23.6372 16.8181
343 1 15.5496 23.7494 18.0186
345 1 20.0144 23.7742 18.1429
347 1 24.5743 23.6304 19.1137
264 1 26.8506 21.5232 16.3938
266 1 31.6174 21.8618 16.5498
342 1 12.6541 26.0182 21.1513
276 1 23.0445 25.9397 15.1031
278 1 27.4044 26.1922 16.618
147 1 16.6892 6.23096 5.24034
280 1 31.1064 26.5771 16.6713
282 1 3.63163 7.92067 18.9552
284 1 8.33291 7.68031 20.0043
286 1 12.9849 7.85031 20.563
288 1 16.903 8.15127 20.8554
290 1 22.0901 8.03928 21.8828
292 1 26.8032 7.41202 22.2381
1685 1 11.2485 27.4102 17.3059
145 1 12.0007 5.79935 4.29472
5913 1 33.8958 24.1975 19.9726
365 1 0.671964 10.1442 22.3011
215 1 10.549 5.84491 10.5938
298 1 7.89364 12.4795 20.0907
300 1 12.7791 12.6579 20.2267
302 1 17.2776 12.1578 21.2817
304 1 21.8218 12.595 21.8112
291 1 24.5028 5.61197 18.6394
5874 1 33.6387 10.3244 19.6815
379 1 1.22624 14.4622 22.0529
1611 1 2.70163 28.4163 9.38481
314 1 12.8929 16.6035 20.4534
318 1 22.1332 16.9284 21.8873
320 1 26.4484 16.8366 22.9048
321 1 29.0447 14.9721 19.9727
5887 1 33.0988 14.8156 20.0823
393 1 1.3356 18.9885 22.5373
349 1 29.0429 23.9967 19.7315
312 1 8.10951 17.0766 19.8088
316 1 17.4395 16.6541 21.5226
335 1 29.0099 19.6688 20.2431
5900 1 33.5476 19.4165 20.1141
407 1 1.4204 23.7497 22.1489
326 1 8.45188 21.7004 20.2134
328 1 12.9419 21.4123 20.2937
330 1 17.4336 21.4574 21.1277
332 1 22.0803 21.5573 21.8836
334 1 25.9813 21.904 22.5034
1615 1 10.8996 27.9398 10.8137
1481 1 25.9864 28.5469 -0.13037
79 1 21.2457 5.67337 -0.109542
281 1 1.71389 5.59186 15.8373
1683 1 6.78343 28.0671 16.2981
1691 1 24.6308 28.3284 18.698
1689 1 19.9402 28.3669 18.4815
1681 1 1.68266 28.1191 15.8915
1613 1 7.09204 28.1849 10.3584
1547 1 15.9345 27.8834 4.77471
1551 1 25.1751 28.0277 6.30348
367 1 5.31703 9.82274 22.889
352 1 3.11492 7.68767 25.5401
354 1 7.76633 7.43912 26.1394
336 1 31.1288 21.7916 23.5202
366 1 3.30821 13.0213 25.0072
368 1 7.62985 11.9656 26.2469
369 1 10.0541 9.90726 23.513
371 1 14.3886 9.82586 23.814
373 1 19.2341 10.1994 24.3804
375 1 23.8751 10.0096 24.7605
377 1 28.6749 10.4946 25.8209
308 1 31.7515 12.4556 22.8723
380 1 2.56738 17.0634 25.8432
382 1 7.20438 16.5587 26.4487
383 1 9.99296 14.5258 23.2196
385 1 14.3287 14.3227 24.1888
387 1 19.0775 14.641 24.9402
389 1 23.7039 14.4165 25.4871
391 1 28.3621 14.4272 25.6843
363 1 29.1211 5.94907 26.0807
637 1 12.509 5.96835 48.8838
399 1 14.8013 18.9366 24.0367
401 1 19.5606 19.4018 25.1373
403 1 23.8398 19.685 25.3801
405 1 28.5361 19.1126 25.4046
5965 1 33.0721 19.9204 26.4111
394 1 3.17539 21.6782 25.807
409 1 5.4806 23.9552 22.8415
396 1 7.51419 21.5878 26.1002
411 1 10.0908 23.107 23.451
413 1 13.9424 23.6605 23.6811
415 1 19.6659 23.5058 24.3205
417 1 23.9973 23.9427 25.1832
419 1 28.6268 24.0737 25.9298
5978 1 33.2168 24.5933 26.8078
408 1 3.21955 26.0867 25.555
395 1 5.53897 18.8425 23.2083
1757 1 15.1538 28.2463 24.2678
505 1 0.222027 10.1211 34.5592
641 1 22.6548 5.72915 47.9101
356 1 11.855 7.51834 26.782
358 1 16.5894 7.89853 27.2771
360 1 21.1121 7.61362 27.7054
362 1 25.9031 7.98689 28.5612
364 1 30.9228 7.77367 29.5441
1759 1 19.4635 28.12 24.5692
437 1 5.31221 10.4097 29.0279
439 1 9.28722 9.81204 29.918
370 1 12.0971 12.3822 26.926
441 1 14.0415 10.0632 29.6846
372 1 16.4632 12.3643 27.3168
374 1 20.882 11.6187 27.8564
376 1 25.5361 12.3965 28.8195
378 1 30.2751 12.1132 29.2464
5939 1 32.6589 10.2774 27.0415
449 1 0.586351 14.828 28.4771
451 1 5.09137 14.5634 29.1662
453 1 9.10006 14.2965 30.0786
384 1 11.6023 16.8026 26.9777
386 1 17.313 16.7601 27.5434
5952 1 32.8639 14.8721 26.8515
1893 1 4.68767 28.0197 35.5912
465 1 4.51436 19.3479 29.1589
467 1 8.91571 19.588 29.6146
388 1 21.762 16.6458 28.1916
390 1 25.6494 17.256 28.4241
392 1 30.2283 17.4412 28.868
477 1 0.847023 23.6749 28.5432
479 1 5.35496 24.0874 28.9085
398 1 12.0827 21.387 26.7459
400 1 16.5729 21.1973 26.8165
402 1 21.2831 21.4642 28.0595
404 1 25.8973 21.7578 28.9769
406 1 30.2886 22.1455 28.8681
410 1 7.96251 26.261 26.1265
6134 1 33.7604 10.1546 41.3465
412 1 12.1967 25.6369 26.5591
414 1 16.9277 25.8613 27.6785
416 1 21.5197 25.6818 27.7907
418 1 26.1815 26.2995 28.416
420 1 30.898 26.3905 29.113
422 1 2.17887 8.01044 31.4342
424 1 6.82938 7.2241 32.7244
426 1 11.5341 7.72272 32.5082
428 1 15.884 7.85891 33.5677
700 1 32.8834 26.4046 49.3883
436 1 2.57189 12.6735 32.3073
438 1 7.19549 11.8895 32.2683
440 1 11.5025 12.6538 32.7466
443 1 18.6037 9.86685 30.6243
445 1 23.1133 9.85195 31.7435
447 1 27.2884 10.3389 32.5041
6004 1 32.0571 10.0961 32.5506
450 1 2.2807 16.8266 32.2332
452 1 7.11304 17.1716 32.164
454 1 11.463 17.2138 32.595
455 1 14.2624 14.6973 30.2109
457 1 18.758 14.3456 31.1436
459 1 23.3762 14.6323 31.3372
461 1 27.8869 14.9769 32.2134
6017 1 32.099 14.923 32.5239
469 1 13.8453 19.547 29.7124
471 1 19.0104 19.0702 31.239
456 1 16.1126 16.6352 33.8341
473 1 23.0616 19.4467 31.5259
475 1 28.1272 19.6161 32.283
6030 1 32.3671 19.686 32.4836
464 1 2.53879 21.3983 32.0139
466 1 6.72074 21.8346 32.4419
481 1 9.22895 23.8231 29.6013
483 1 14.8597 23.7296 29.7067
468 1 11.5813 21.8841 32.4147
485 1 18.6172 23.5586 30.8669
470 1 16.1903 21.287 33.4671
487 1 23.6122 23.757 31.5034
489 1 28.1395 23.9675 31.9953
6043 1 32.1574 23.6314 33.0939
478 1 2.91952 26.1758 31.7314
480 1 6.80416 26.3852 32.5621
435 1 1.29896 10.1274 28.1103
482 1 11.7702 26.2257 32.3241
1829 1 18.7308 28.0865 30.7092
533 1 0.465356 19.7054 35.0681
698 1 27.0192 26.6444 50.163
6056 1 33.2752 5.91707 36.9573
511 1 13.3658 9.68957 36.5673
430 1 20.5298 7.33506 34.4949
432 1 25.4068 7.46288 35.2653
434 1 29.9053 7.8236 35.3654
507 1 4.4632 9.96017 35.1646
509 1 8.99461 9.2658 35.9377
442 1 15.948 11.973 33.6553
444 1 20.6675 12.0939 34.172
446 1 25.2628 12.3281 35.0665
448 1 30.1364 12.4837 35.2398
521 1 5.28397 14.418 35.3376
523 1 9.14638 14.4405 35.4164
525 1 13.842 14.1771 35.8493
527 1 18.5096 14.378 36.7906
460 1 25.4757 17.0428 35.01
462 1 30.1191 17.2867 35.5082
6082 1 33.604 14.9515 37.1122
535 1 4.60158 19.2168 35.4969
537 1 9.12781 19.1376 35.2576
539 1 13.7656 19.4903 35.9556
541 1 18.1744 18.5247 36.8191
458 1 21.5093 16.8423 34.2423
565 1 8.23491 5.69494 41.95
549 1 5.26286 24.0277 35.2322
551 1 9.38535 23.7062 35.4329
553 1 13.3399 23.7719 36.0555
472 1 20.789 21.3293 34.3693
557 1 22.7099 23.6301 38.1454
474 1 25.4809 21.4163 34.8225
476 1 29.3484 21.8329 35.3573
6108 1 33.3912 23.9703 37.1767
660 1 0.981204 16.6482 50.4415
484 1 16.3685 26.1335 33.3733
486 1 20.6747 26.0409 34.2893
488 1 24.8286 25.9594 34.7003
490 1 29.7958 26.3256 36.0518
499 1 17.5379 5.63783 37.439
492 1 2.19877 7.80772 37.8571
494 1 6.8123 7.87788 38.9008
496 1 10.8194 7.40242 39.9304
498 1 15.4662 8.18406 39.6513
569 1 17.3969 5.92774 43.3004
502 1 24.8519 7.82596 40.7917
1897 1 13.6345 28.2028 35.752
504 1 30.333 8.05532 40.0416
506 1 2.1397 12.3348 38.1109
508 1 6.58404 12.4636 38.7475
510 1 11.0297 12.1416 39.1319
513 1 18.55 9.9277 36.5953
512 1 15.7023 12.7441 39.973
515 1 22.6565 9.78831 37.9138
517 1 27.3579 9.86346 38.1996
6069 1 33.1043 9.99312 37.1747
518 1 30.8973 12.4313 39.4015
522 1 7.06972 16.8628 38.8429
526 1 15.4909 16.9482 39.3593
529 1 23.256 14.4427 37.5613
531 1 27.363 14.7869 38.376
532 1 30.8767 17.1744 40.2621
520 1 2.52468 16.87 38.0731
536 1 6.63475 21.9837 38.5414
524 1 11.6405 16.7776 38.3585
540 1 15.4933 21.493 39.6862
528 1 20.4593 16.623 40.442
543 1 22.8739 19.0166 37.8105
545 1 26.9729 19.3815 38.6307
6095 1 33.0424 19.318 36.8951
534 1 2.41194 21.4696 38.5003
538 1 10.8314 21.2841 39.178
555 1 18.1125 23.8581 37.148
542 1 19.9225 21.3585 40.6935
559 1 26.7019 23.6072 38.37
546 1 30.9106 21.9856 39.6867
548 1 2.08389 26.0671 37.951
550 1 7.16966 26.4824 38.8907
552 1 11.3562 25.481 38.906
554 1 15.7563 26.2078 39.5413
556 1 20.3848 26.1222 40.1981
1901 1 22.6872 28.183 37.7663
560 1 30.9709 26.5659 40.2275
562 1 1.62931 7.8188 44.3021
695 1 17.4792 23.9377 49.7945
500 1 20.1848 8.23195 40.5118
350 1 30.7963 26.2478 23.0379
577 1 3.8057 9.86177 41.6378
579 1 8.59368 10.266 42.4233
581 1 12.9882 10.3307 42.9975
583 1 17.6119 10.5503 43.4977
514 1 20.2667 11.9291 40.3669
585 1 22.2058 10.2058 43.9351
516 1 24.6505 12.5095 40.9921
587 1 27.937 9.69908 42.6086
591 1 3.93795 14.9818 41.6127
593 1 8.74269 15.1898 42.0372
595 1 12.7783 14.8661 42.6339
597 1 17.4194 14.542 43.0528
601 1 28.4454 14.1587 42.9345
605 1 4.30579 19.4593 41.6331
590 1 1.73216 16.8575 44.5361
607 1 9.25948 19.644 42.3469
609 1 13.4385 19.3615 42.6987
611 1 17.6494 19.256 42.8007
613 1 22.2691 19.2292 44.0421
530 1 25.1082 17.0175 40.9519
615 1 28.553 19.0291 42.7466
619 1 4.44437 23.8742 41.2763
621 1 8.90881 23.4479 42.4353
623 1 13.5502 23.7652 42.6564
625 1 17.5222 23.7078 43.1805
627 1 22.1366 23.659 43.8751
544 1 24.5156 20.8935 41.4001
629 1 28.5137 23.6618 42.6659
618 1 1.34685 26.0901 44.3263
7291 1 32.275 28.319 32.615
558 1 24.7598 25.5824 41.0876
1973 1 28.5189 27.6465 42.7565
564 1 5.68181 7.4265 44.9639
566 1 10.3045 8.17087 45.335
568 1 14.8371 7.85425 46.7257
570 1 19.1157 8.09786 46.5234
572 1 25.8951 7.87164 45.5847
574 1 31.5245 7.88156 44.5421
576 1 1.47502 12.5945 44.375
578 1 5.97536 12.4117 44.6914
580 1 10.1916 12.7719 45.5757
582 1 14.3972 12.4393 45.8677
584 1 19.9811 12.64 46.4595
586 1 25.9769 12.3631 45.4279
657 1 29.1487 10.1272 46.9224
588 1 31.5803 12.3904 44.7626
661 1 3.95279 14.5921 47.9782
596 1 15.7742 17.0448 46.2418
599 1 22.0232 14.744 43.9293
671 1 29.1675 14.6573 47.5266
602 1 32.211 16.431 44.3923
592 1 6.67316 16.9894 44.9365
594 1 11.0808 17.0403 46.0043
598 1 20.3435 17.1672 47.477
600 1 26.1523 16.9049 45.5037
685 1 29.6334 19.4801 46.8999
604 1 1.7677 21.4033 44.0483
689 1 4.04932 23.845 47.4927
606 1 5.88597 21.2983 45.0312
608 1 10.4457 21.5708 45.5083
610 1 15.9505 21.6111 46.152
612 1 19.6633 21.1527 46.7298
614 1 25.8059 21.1619 45.5694
699 1 29.2906 23.9324 47.2602
616 1 31.6551 21.9737 44.5761
620 1 5.81203 26.3883 44.8783
622 1 10.4269 26.2987 45.1925
624 1 15.1248 26.3376 46.2084
626 1 19.5633 26.3249 46.3141
628 1 26.1538 25.8463 45.3939
1899 1 18.276 28.1692 36.4074
630 1 31.6491 26.1466 44.81
1761 1 23.9499 27.9272 25.2081
632 1 0.599288 7.62174 50.8768
648 1 5.62136 12.294 50.7115
1965 1 8.81718 28.1338 41.8146
642 1 26.8088 7.46447 50.1655
1827 1 14.1448 28.2762 29.8939
644 1 33.0573 7.8347 48.2431
646 1 1.19957 11.9711 50.7468
647 1 2.98232 10.1031 47.5818
649 1 7.24984 10.0555 48.33
651 1 11.5609 10.254 48.9762
653 1 17.5954 10.8626 48.9857
655 1 23.2422 10.1289 48.6121
656 1 26.5669 12.1337 50.2686
397 1 10.1126 19.2267 23.2214
658 1 32.879 12.527 48.5697
1967 1 12.9445 28.0027 42.1746
663 1 8.25509 14.5921 48.6999
665 1 13.0246 14.3856 48.886
667 1 17.6326 14.8193 49.8459
669 1 23.3946 14.836 48.3072
672 1 33.1848 17.2815 48.6301
675 1 3.81519 19.2395 47.8313
567 1 12.845 6.05846 42.9527
677 1 7.70175 19.3553 48.7567
679 1 13.136 19.5444 48.7119
681 1 16.9525 19.2156 49.8528
683 1 23.6587 19.2419 48.3293
670 1 27.2394 16.9305 49.9115
674 1 1.20365 21.4001 50.0874
688 1 0.870085 26.3611 50.3268
691 1 8.09958 23.8842 48.0638
693 1 12.7582 23.8206 48.5951
1971 1 22.6093 28.1725 43.7166
684 1 27.1913 22.064 49.902
697 1 23.0857 23.9234 48.2229
686 1 33.1429 21.8069 48.9889
1895 1 9.52044 28.2531 35.7259
1833 1 28.0263 28.2472 32.2123
1969 1 17.5219 28.413 43.183
1831 1 23.5373 28.1568 30.574
423 1 5.17993 5.83451 29.0715
640 1 20.5166 7.7946 50.7464
682 1 20.9377 21.2873 51.3818
654 1 20.7913 12.5413 51.0731
1755 1 10.5588 28.5481 23.2427
322 1 30.7397 16.7999 23.0814
968 1 0.531303 26.4766 73.546
716 1 0.561948 12.7406 56.4101
636 1 9.92536 8.08183 51.7725
638 1 14.5764 8.2472 51.5876
1055 1 11.6294 6.03348 78.2798
779 1 19.4871 5.90542 59.0087
712 1 27.9254 7.61353 54.6582
714 1 33.2247 8.46902 52.271
717 1 3.71084 10.3955 53.4112
719 1 8.09325 10.0641 54.8159
650 1 10.29 12.8278 51.992
652 1 14.686 12.4416 51.976
723 1 18.0506 10.2571 53.8076
786 1 0.0265738 12.4576 63.1717
725 1 23.5534 10.0005 52.6523
726 1 27.4256 12.1199 54.1893
728 1 33.9868 12.6066 53.0482
731 1 3.10194 14.5653 53.9691
668 1 21.0268 17.2632 51.6029
733 1 7.67271 14.6134 54.4136
664 1 10.3605 17.0373 51.772
737 1 18.2153 14.7056 54.4164
690 1 5.28064 26.0286 51.2773
739 1 24.5315 14.596 52.8703
1090 1 31.2725 16.9345 78.6695
745 1 2.34267 19.2506 53.9597
747 1 7.39089 19.4518 55.157
666 1 14.6653 17.2403 52.7878
751 1 17.9359 19.926 53.8849
753 1 24.686 19.2894 52.9665
740 1 28.0857 17.0021 54.4688
755 1 30.5819 19.3461 51.9207
742 1 33.8901 17.3584 53.3984
759 1 2.99555 23.8403 53.7165
761 1 7.57933 24.1642 54.8863
678 1 9.70364 21.5964 51.5355
680 1 14.0056 21.9908 52.1231
765 1 17.9682 23.8476 54.0055
767 1 24.2145 24.0435 52.8724
769 1 30.6943 23.6456 51.8636
2319 1 20.954 28.0142 67.8035
634 1 5.49329 7.77461 51.1279
843 1 1.81041 6.05062 66.8727
783 1 31.9006 5.95143 56.1247
692 1 9.88676 26.3254 51.551
694 1 14.5893 26.2639 52.7984
770 1 34.1171 26.5903 53.2804
851 1 26.3677 6.18825 62.4814
768 1 27.95 26.5193 54.4747
702 1 0.809931 8.21718 56.346
704 1 5.54257 7.88388 56.8747
706 1 10.5502 7.52414 57.9981
708 1 15.6117 8.10334 57.3975
710 1 21.7773 8.13221 55.5347
781 1 25.1957 5.6729 57.2076
1104 1 31.4215 21.1231 78.2689
1118 1 31.7455 25.9746 78.5803
709 1 17.7171 5.90962 54.1636
718 1 5.13772 12.5717 57.5467
721 1 12.0736 10.034 55.1677
720 1 9.97262 12.1213 58.544
722 1 15.4393 12.4689 56.6632
724 1 21.591 12.9966 55.5308
795 1 25.2781 10.3391 57.1486
797 1 30.8118 10.358 55.4901
1116 1 27.1717 26.4771 78.0185
732 1 5.14232 17.2541 57.3533
734 1 9.69824 16.7494 58.1287
735 1 12.3443 14.8768 55.5347
809 1 25.6877 14.896 57.3679
811 1 31.4374 15.2285 56.0658
749 1 11.6718 19.5309 55.1211
736 1 15.335 17.2104 56.7311
738 1 21.4449 17.6558 55.7526
823 1 25.1529 19.3079 57.016
825 1 31.4454 19.6664 56.5509
746 1 4.87278 21.9525 57.565
748 1 9.44318 21.6238 57.8707
763 1 11.7663 24.0511 54.9257
750 1 15.0816 22.0181 56.8338
835 1 19.0778 23.8488 58.4697
752 1 21.5966 21.6174 55.7113
837 1 25.4451 24.0097 56.569
754 1 28.0117 21.8927 54.4166
839 1 31.9252 24.2376 55.5467
760 1 4.60473 26.224 57.7871
762 1 9.93776 26.2475 58.4019
1113 1 16.3487 23.992 78.1353
764 1 15.5227 26.2926 56.5588
766 1 21.6427 26.2408 55.7449
662 1 5.62509 17.0051 51.5004
676 1 5.76295 21.3718 51.3506
711 1 24.0779 5.84843 53.1512
1111 1 11.3225 23.8992 78.4227
778 1 17.0266 8.39794 61.8538
780 1 22.8326 7.89969 59.9081
707 1 11.9771 5.64538 54.7623
782 1 28.953 7.96047 59.0249
2317 1 15.0218 28.3097 68.902
787 1 2.91534 10.3147 59.914
789 1 6.73101 10.306 61.1348
791 1 13.5497 9.74891 60.2626
793 1 18.736 10.2026 58.2421
794 1 22.6111 12.35 60.0293
865 1 26.1454 10.3944 61.5942
796 1 29.069 12.3564 59.1138
867 1 32.9626 10.0239 60.7453
801 1 2.35162 14.8263 60.653
803 1 6.85436 14.8145 60.9836
805 1 13.3753 14.2936 59.7251
807 1 19.4662 14.6968 58.8996
881 1 31.8084 15.1646 60.038
815 1 2.26456 19.4198 60.004
817 1 7.01979 19.4938 59.9007
819 1 13.484 19.5252 59.4087
806 1 16.9741 17.3542 60.9806
821 1 18.822 19.3909 58.3091
808 1 22.7648 17.668 60.4981
893 1 26.1424 19.5971 61.3769
810 1 28.2353 17.5762 58.8581
895 1 32.6406 19.6192 60.5571
829 1 2.18237 24.2654 60.1586
831 1 6.88946 24.1854 60.9134
833 1 13.054 24.1805 59.4221
820 1 16.3085 21.9386 61.4024
822 1 22.9131 22.1354 60.1647
824 1 28.7686 21.5818 59.0982
909 1 32.5099 24.3752 59.7932
2249 1 20.4547 28.0142 62.9947
912 1 0.497944 7.95984 73.6781
834 1 17.1384 26.5275 60.9026
836 1 23.0332 26.3642 59.7101
838 1 28.5632 26.1616 59.1564
774 1 4.52764 8.50585 63.8882
776 1 10.6018 8.06607 62.6995
1102 1 26.792 21.6197 78.0529
850 1 24.1321 7.7216 65.1783
852 1 30.6181 7.47433 63.2872
915 1 9.34379 5.6978 70.0023
788 1 5.01244 12.4579 63.7842
790 1 10.8056 12.651 62.302
861 1 14.4871 10.4872 63.9275
792 1 17.0815 12.5838 61.2428
863 1 20.7198 9.84811 62.749
864 1 23.3492 12.1069 64.5714
866 1 29.6897 12.1556 63.058
937 1 33.2992 10.0202 64.7185
802 1 4.3433 17.7805 63.3569
804 1 10.626 17.2999 62.1412
875 1 14.3597 15.1641 64.1077
877 1 20.4224 15.1847 63.154
879 1 26.1464 14.8271 62.0379
951 1 32.933 14.0952 64.4677
889 1 13.3268 19.7855 64.2371
891 1 20.2358 19.5673 63.215
878 1 23.8237 16.6531 64.5015
880 1 29.329 16.9849 63.3946
816 1 4.90512 21.6039 63.7041
818 1 10.9275 22.1994 61.9972
901 1 8.26074 23.8008 65.358
903 1 14.2559 24.4262 63.7573
905 1 20.0507 24.1295 62.9489
907 1 26.2754 23.6472 61.4251
892 1 24.2604 21.1838 64.1608
894 1 30.0806 21.6666 62.704
964 1 33.1292 24.1863 64.2607
830 1 4.73171 26.5188 63.5884
832 1 10.345 26.6021 62.2536
2459 1 22.6759 28.2226 76.0658
906 1 23.7967 26.3247 64.4469
908 1 29.5277 26.3249 63.0621
844 1 5.82191 8.00641 68.3674
846 1 11.121 8.04567 67.4242
848 1 17.506 8.28689 66.3503
920 1 24.4444 8.04378 68.7758
922 1 30.9759 7.58992 67.9808
857 1 2.10248 10.7786 66.3695
858 1 5.05939 12.7482 68.353
859 1 8.70093 10.3053 65.3719
860 1 11.5224 12.8639 66.8442
862 1 17.7899 12.9674 66.2759
933 1 21.5159 10.5306 67.5136
935 1 27.3107 10.0173 66.167
936 1 30.8615 12.2808 67.8519
871 1 1.67894 15.3274 66.329
872 1 5.76044 17.1972 67.9217
873 1 7.71338 14.9818 65.2452
947 1 20.9915 15.3318 67.2027
949 1 26.9562 14.3535 66.2448
885 1 2.11316 19.6147 66.1206
887 1 8.55286 19.3216 64.7122
874 1 11.496 17.4695 66.7881
959 1 14.9614 19.312 68.5939
876 1 17.2506 17.7238 65.6175
961 1 21.4187 19.3307 67.3495
963 1 27.6449 18.9947 66.3269
1033 1 32.999 18.9461 65.014
950 1 30.9734 16.7244 67.6561
899 1 1.83022 23.6309 66.6114
886 1 5.8416 21.6938 68.1543
888 1 11.6712 22.2766 67.2379
890 1 17.4193 21.9658 66.1292
975 1 21.1164 23.3647 66.8234
977 1 27.2654 23.4704 66.0527
1035 1 30.8577 22.3097 67.4866
727 1 29.8101 10.8743 51.5339
900 1 5.40381 26.2387 68.3582
847 1 14.0215 5.64236 64.4543
902 1 11.5087 26.0235 67.0329
904 1 17.5704 25.889 65.7617
978 1 30.8232 26.4886 67.5125
1038 1 1.19706 25.9845 78.3328
914 1 6.75416 8.46643 72.3932
916 1 12.9696 7.98761 71.5143
918 1 19.0479 7.79537 70.5553
1026 1 7.49399 21.6843 77.0264
1024 1 1.22068 21.3341 78.0564
2109 1 18.1428 28.602 54.05
927 1 2.97296 9.97663 70.7232
928 1 6.61235 12.4827 72.7479
929 1 9.52474 9.98601 70.0698
931 1 14.926 10.2222 68.6564
930 1 12.7995 12.6248 71.8551
932 1 18.9301 12.2624 69.9005
1003 1 22.6269 10.2335 72.1046
934 1 24.6034 12.7833 68.9622
1005 1 28.2197 10.6117 70.4189
1006 1 32.2834 12.7274 71.8501
941 1 2.9271 14.8781 70.8596
943 1 8.82827 14.5166 69.1782
945 1 15.2827 14.8033 68.7919
944 1 12.3422 16.8455 71.3671
946 1 18.6647 16.961 70.0636
1017 1 21.6885 14.9238 71.933
1019 1 28.3762 15.0112 70.7251
955 1 2.7902 19.3673 70.6216
957 1 9.29742 19.011 69.36
948 1 24.4339 17.2168 69.0736
1020 1 28.5449 19.5407 70.414
741 1 30.1935 14.9802 51.4948
969 1 3.20133 23.9614 70.7153
971 1 8.76308 23.6277 70.0405
973 1 15.4016 23.9251 68.5793
958 1 12.8243 21.5833 71.3161
960 1 18.7497 21.6357 70.3159
1045 1 21.8669 24.2111 71.9754
962 1 24.6855 22.0128 68.7696
1047 1 28.044 24.1474 70.6201
919 1 21.2193 6.34225 67.3979
1105 1 34.1039 19.5489 75.3876
972 1 12.8246 25.7119 71.3184
974 1 18.8642 26.3031 70.1256
976 1 25.1239 26.4473 69.1276
1119 1 33.5986 23.4437 74.9329
1091 1 34.0494 14.151 75.155
986 1 14.3646 7.85285 76.1388
988 1 19.366 8.19613 75.0107
990 1 25.5167 7.78949 73.0312
1073 1 23.4851 9.97601 76.6804
992 1 32.0291 7.29608 72.5829
1058 1 20.5964 8.12018 79.1719
997 1 4.03621 10.0224 75.5335
999 1 10.4143 10.432 74.2059
1001 1 16.1188 10.1314 73.2627
1002 1 20.0075 12.375 74.4059
1004 1 25.5891 12.8427 73.5764
1075 1 29.1758 10.4144 74.7564
1011 1 4.11813 14.6562 75.5747
1013 1 10.3638 14.9233 73.8917
1015 1 16.2601 14.5535 72.7409
1016 1 20.1626 16.9887 74.8015
1018 1 25.749 17.5529 73.2095
1089 1 29.4452 14.9794 75.0053
2389 1 22.4124 28.1858 71.563
1022 1 32.0776 17.2256 71.776
1040 1 7.55134 26.1515 77.2482
1025 1 3.75596 19.2319 75.1547
942 1 6.57128 17.1869 72.3085
1027 1 9.88103 19.1873 74.1002
1029 1 16.2409 18.9484 72.7996
1031 1 22.1052 19.507 71.8326
1103 1 29.5668 19.5695 74.9495
1039 1 3.98456 23.924 75.4897
956 1 5.57394 21.6895 72.9013
1041 1 9.99407 23.7923 73.8925
1028 1 13.4433 21.2338 75.5277
1043 1 16.6517 23.7616 72.9804
1030 1 19.3179 21.8716 75.0406
1032 1 25.744 21.9831 73.3327
1117 1 29.5406 24.0154 75.0034
1034 1 32.3725 21.7776 71.8033
970 1 5.76879 25.9032 72.8394
1042 1 13.3747 25.9587 75.6016
1044 1 19.201 25.7413 74.9488
1046 1 26.1845 26.2469 73.6701
2111 1 24.4061 27.9908 52.6856
1048 1 31.9623 26.5837 71.9576
982 1 1.81549 8.59753 78.3507
984 1 7.54439 8.18181 77.1949
1115 1 23.2165 23.4749 75.9847
773 1 2.38356 6.27609 59.8689
1060 1 26.8805 8.20552 77.5016
1062 1 31.4425 8.05425 78.4224
996 1 1.69505 12.5921 77.6951
998 1 7.78685 12.3024 76.5788
1069 1 11.4854 10.3535 78.8106
1000 1 13.8359 12.8223 76.3474
1071 1 17.0226 10.618 77.4431
1074 1 26.9227 12.8344 77.1703
1114 1 20.2952 26.1483 78.7873
1076 1 31.303 12.6348 78.2302
1083 1 10.4663 14.8049 78.6307
1014 1 13.4835 16.7781 75.7216
1085 1 17.8465 15.2444 77.1616
1101 1 23.49 19.847 76.3049
1087 1 23.1689 15.1162 76.1445
1088 1 26.9545 16.8157 77.7129
1010 1 1.47256 16.8304 78.0537
1012 1 7.52316 17.2806 76.7589
1097 1 10.4822 19.5398 78.5773
1099 1 16.8924 19.4221 77.3664
1061 1 29.0373 5.98627 75.0249
2113 1 30.2598 28.4908 51.3328
1077 1 33.9999 9.98654 76.0914
2391 1 28.8815 28.5716 70.6122
921 1 27.7137 5.47661 66.7788
2245 1 7.6841 28.1763 65.6195
2105 1 7.14345 28.0748 55.1934
2385 1 9.77487 28.4545 73.7593
2173 1 2.24769 28.3944 60.357
2323 1 33.3059 28.0357 64.9553
2383 1 3.63356 28.4709 75.4768
991 1 28.2867 6.12159 70.7086
983 1 3.97045 6.24912 75.4993
696 1 20.3734 26.2878 51.4858