ITEM: TIMESTEP
14000
ITEM: NUMBER OF ATOMS
16000
ITEM: BOX BOUNDS pp pp pp
1.0460782998632325e+00 1.0115392170013669e+02
1.3634703838639908e+00 1.0083652961613728e+02
-1.6551308067512593e-01 1.0236551308067561e+02
ITEM: ATOMS id type x y z
2 1 4.61717 4.09006 0.462228
4 1 9.3139 4.0877 0.282971
6 1 13.9149 4.50298 0.76215
8 1 20.1763 4.05227 0.686664
79 1 22.302 1.92733 3.39116
12 1 29.7459 4.33758 0.308546
14 1 34.148 3.3875 0.590106
85 1 1.88195 7.40253 2.53126
87 1 6.73635 7.12789 2.90058
22 1 19.6169 8.74434 0.429766
93 1 22.3516 6.35376 2.63724
95 1 26.8847 5.85381 3.37765
99 1 2.37403 11.8764 3.01838
16 1 4.66127 10.3091 0.0864528
18 1 10.0474 9.79133 1.14209
20 1 14.887 9.62162 0.447021
105 1 17.5675 11.9587 2.90845
107 1 21.3676 11.026 2.75986
24 1 25.0916 9.4154 0.870729
26 1 28.9496 8.86043 0.116997
30 1 4.34494 14.9148 -0.0206757
32 1 10.0544 14.8607 1.49793
103 1 12.836 12.2338 3.73995
34 1 14.4608 14.2196 0.483858
36 1 19.9613 14.9752 0.601168
38 1 24.3469 14.2442 1.23962
40 1 29.7532 13.5671 0.614418
42 1 33.6576 14.2673 1.31211
115 1 6.94092 16.4833 2.81715
121 1 23.1119 17.3679 2.99536
153 1 31.1366 1.96577 9.4335
44 1 3.8184 18.8343 0.586466
46 1 10.2514 19.4103 1.19015
48 1 14.2423 19.4815 1.26351
50 1 19.8407 19.6066 0.319798
52 1 25.3494 20.1524 0.240797
54 1 29.8061 19.7225 0.697526
58 1 3.9764 23.934 1.34551
60 1 9.36951 24.0761 1.70363
62 1 14.1142 23.4303 1.1692
64 1 19.7344 24.6957 1.07795
112 1 33.3935 13.5473 6.12035
151 1 27.1541 2.23516 8.95978
68 1 29.435 23.6473 1.64535
28 1 33.5606 9.125 0.603571
72 1 4.05176 4.65952 4.79595
70 1 34.1514 23.9919 1.3765
76 1 15.1621 4.60168 5.32576
77 1 16.7284 1.86319 3.32535
78 1 19.6803 3.82153 5.53219
80 1 24.4206 4.80628 5.83377
81 1 27.0853 2.11268 3.2304
82 1 29.5403 4.47803 6.54649
89 1 11.3186 6.16856 3.52728
91 1 17.2631 6.81032 2.92277
97 1 31.5728 5.93872 3.4712
86 1 4.79743 9.21582 6.06791
88 1 9.29599 9.34219 5.90312
90 1 14.1393 8.93611 5.82499
92 1 19.6904 8.59927 5.22556
109 1 27.053 12.1442 2.96172
94 1 24.6466 9.38203 5.56283
96 1 29.5109 9.20132 6.1809
111 1 31.7331 11.402 3.33207
101 1 6.68887 11.8915 2.69768
104 1 14.3209 14.5398 6.12986
106 1 20.1268 13.7244 5.20253
108 1 24.8316 13.7346 5.76488
110 1 29.308 13.9059 6.69431
379 1 2.86167 11.3295 24.654
113 1 2.4042 15.8453 3.22078
114 1 4.713 18.4413 6.39506
116 1 9.35845 18.7376 5.6772
117 1 12.5754 16.6072 3.64359
118 1 15.7158 19.1364 5.77548
119 1 17.3126 16.3787 2.9998
120 1 20.5449 18.2064 5.5488
123 1 26.9551 16.8037 2.98791
122 1 24.5411 18.6489 6.49821
125 1 31.5121 16.507 3.58348
127 1 1.9014 21.5679 3.76306
129 1 6.349 20.8422 2.7613
131 1 12.0351 21.8405 4.76978
133 1 17.9304 21.2799 3.17999
135 1 22.6251 21.1894 3.68431
137 1 27.4157 21.1001 3.6882
139 1 32.224 21.1618 4.34186
1683 1 7.47333 25.8622 19.5251
128 1 4.33586 23.2284 6.41474
169 1 2.09505 11.4038 9.11161
132 1 15.0645 23.7171 5.9561
134 1 20.7689 24.3536 5.46256
136 1 25.1398 23.3341 5.6197
138 1 29.3265 23.8894 7.13377
56 1 34.4163 18.817 0.863316
143 1 6.37356 1.98519 9.31599
74 1 8.82559 4.02475 5.97655
145 1 11.593 1.72372 9.13365
146 1 14.9017 3.41367 10.0306
148 1 18.9267 3.81415 10.4614
126 1 34.2994 18.3754 7.37867
149 1 22.0398 2.23267 8.60121
221 1 25.7458 1.42917 14.1875
399 1 16.7768 16.2714 24.9434
84 1 33.5526 4.71238 6.87651
155 1 2.00878 6.63828 8.53123
157 1 6.73419 6.28743 8.19241
159 1 12.1507 6.31193 8.33378
161 1 17.4272 7.58096 8.08521
163 1 22.0607 6.86979 8.48671
165 1 26.2821 7.03573 8.5297
98 1 33.6049 9.1665 6.07179
167 1 31.3125 6.76657 9.02807
350 1 32.5931 23.6061 22.6364
171 1 7.51691 12.097 8.70465
173 1 11.9752 10.9095 8.06096
175 1 17.4323 11.5439 7.54693
177 1 22.1345 11.6152 8.73485
179 1 26.6949 11.5843 9.12502
181 1 31.5589 11.159 9.91846
100 1 4.45908 14.0284 6.03201
102 1 9.72685 13.993 5.3747
176 1 19.5069 13.7412 11.4361
191 1 22.3206 15.5398 9.0075
193 1 27.0217 15.9891 9.05627
195 1 31.2927 15.679 10.2861
367 1 7.30578 6.78595 25.2971
185 1 7.55873 15.7604 8.62213
187 1 12.1146 16.9267 8.32949
189 1 17.7512 15.8596 8.76257
124 1 29.6322 18.1018 6.59728
348 1 28.2607 23.0639 23.5848
199 1 7.44506 21.0139 9.22757
201 1 11.6499 20.8281 9.25253
203 1 18.5087 21.1038 7.85325
205 1 22.3348 21.8145 8.35603
207 1 26.6899 20.5539 9.31107
209 1 31.9926 21.2108 8.97323
1541 1 1.62848 25.2101 9.55843
1543 1 7.05631 25.6259 9.42626
130 1 8.7653 23.0964 6.32024
1545 1 11.4763 24.7762 8.8352
1547 1 17.9653 25.9047 8.20783
1549 1 22.4378 26.1332 8.9432
197 1 2.00768 21.2171 8.61516
142 1 4.15563 3.95968 11.5026
213 1 6.96239 2.09822 14.7769
144 1 8.80848 4.15209 10.8654
215 1 12.2851 2.13969 13.2693
217 1 17.1524 2.11781 13.6905
1751 1 2.15309 25.4905 24.4786
150 1 24.557 4.39662 12.0181
152 1 28.5415 4.75109 12.1719
154 1 33.2753 3.83406 13.1281
227 1 6.76285 6.84219 13.8888
160 1 15.0072 9.08081 10.5443
229 1 12.2785 6.64912 13.2674
233 1 21.0343 5.56729 13.3818
156 1 5.01848 9.02571 10.982
239 1 2.02213 11.1609 14.0337
241 1 6.58012 11.5484 13.2235
158 1 9.49047 8.57478 11.4348
243 1 12.265 11.3305 13.1889
162 1 18.9843 9.0193 11.1823
245 1 16.4785 11.2848 14.2673
164 1 23.6045 8.88904 11.3993
166 1 28.8382 8.70312 12.1633
168 1 33.3181 8.49428 13.0151
170 1 4.5661 13.5691 10.8644
172 1 10.3072 14.4056 11.7785
174 1 14.8775 13.881 10.6684
261 1 22.021 16.3443 14.6212
178 1 24.7779 13.4789 12.2726
180 1 28.6788 13.9866 12.7501
182 1 33.4154 13.0869 13.4666
184 1 4.19959 18.2018 11.0083
255 1 6.93335 16.2043 13.9317
186 1 9.72788 18.9672 11.7226
257 1 13.7877 17.1091 13.5999
188 1 15.5845 18.6278 10.5335
190 1 20.4176 18.5901 10.8534
259 1 17.5332 16.2202 13.3698
192 1 24.9119 18.0043 11.1227
194 1 29.0169 18.464 11.6853
196 1 33.6087 18.6198 12.1249
265 1 31.6118 16.4387 14.6507
269 1 6.26977 20.8249 14.2662
275 1 22.3088 20.6085 13.5478
198 1 3.97283 23.0001 11.7699
1611 1 2.0313 25.2784 14.1967
1613 1 7.00675 25.3177 14.1582
200 1 9.43833 23.3914 12.1374
202 1 15.1514 22.8198 10.6635
1615 1 12.5919 25.0641 13.2944
204 1 19.793 23.2782 11.7193
1619 1 21.2919 25.8057 14.3811
206 1 24.4567 23.5724 11.8705
208 1 29.0615 23.7269 11.8548
210 1 33.1156 23.7187 12.8781
211 1 2.21296 2.38261 15.0278
212 1 4.92985 4.02486 17.1761
214 1 9.68032 4.88643 16.1304
216 1 14.4541 4.67141 16.1791
218 1 18.9852 5.08155 16.9309
220 1 23.3444 4.00281 17.005
222 1 27.8169 3.25098 17.2253
224 1 32.5408 3.58122 17.8826
225 1 2.26423 6.49111 14.9467
231 1 16.1901 6.56173 13.29
234 1 22.2974 8.59819 16.456
235 1 26.2154 6.64593 14.6997
237 1 30.4106 6.40983 15.9253
238 1 33.022 8.50008 17.8559
226 1 5.43513 9.52746 16.4656
228 1 9.55135 9.5539 16.3139
230 1 14.176 9.34439 16.9933
232 1 18.5605 9.13519 16.5371
247 1 20.8727 11.2717 14.0178
249 1 25.8865 11.1197 14.9202
251 1 30.502 11.1338 15.081
240 1 4.30728 13.7363 16.8421
242 1 10.2085 14.1853 16.0982
244 1 14.5476 13.9814 16.6614
246 1 19.3814 13.3642 16.9472
248 1 23.579 13.2407 17.4828
250 1 28.1636 14.0577 17.5463
252 1 32.8134 13.6819 18.2746
254 1 3.58815 17.7913 16.7502
256 1 10.4893 19.1955 15.7462
258 1 14.6692 18.5661 17.1701
260 1 19.3261 19.2027 17.1096
263 1 26.395 16.3064 15.1834
262 1 22.8982 19.0866 17.6644
264 1 28.7587 18.9129 17.5023
266 1 33.1449 18.1666 17.6203
267 1 2.06925 20.732 14.4131
271 1 13.1608 21.1961 13.9651
273 1 17.1449 20.9024 14.0542
277 1 26.01 20.7103 14.691
279 1 30.6176 21.1117 14.9109
268 1 5.04573 23.0141 16.7319
270 1 9.75828 23.5021 16.8151
272 1 14.3668 23.071 17.2594
274 1 19.1015 23.9037 17.283
1617 1 16.6587 25.5299 13.9367
276 1 23.2591 23.1241 17.6182
1621 1 26.7068 25.4385 15.0804
280 1 32.8172 23.3456 18.1963
346 1 23.8113 24.1212 23.1719
283 1 8.12389 2.27238 19.033
282 1 5.19436 4.63822 21.8151
285 1 12.0615 2.69944 19.6485
287 1 16.2998 1.99625 19.5898
291 1 25.1923 1.50597 20.6693
344 1 18.9456 24.0411 22.9529
295 1 2.34367 6.66753 19.7352
297 1 7.9439 7.0679 18.9664
299 1 11.7295 7.16142 19.6439
301 1 15.9921 6.91203 19.7061
303 1 20.399 6.51279 21.0596
305 1 25.4761 5.72367 20.7273
236 1 28.3242 9.44177 17.7037
307 1 30.0257 5.81291 20.0432
309 1 2.14964 11.4185 18.9079
311 1 7.80857 11.7459 19.179
313 1 12.4682 11.8278 19.3388
315 1 16.6901 11.4221 20.0029
317 1 20.9487 10.9826 19.9303
319 1 25.8182 11.4604 20.0319
321 1 30.3199 10.884 20.4714
323 1 2.20971 15.9888 19.9242
329 1 16.8772 15.7421 18.9471
331 1 21.5776 15.9474 19.357
324 1 5.3349 18.9896 21.5299
325 1 7.60815 16.3894 18.4126
327 1 12.05 16.424 19.0981
326 1 9.77429 18.6671 22.0009
333 1 25.6069 16.0711 19.9081
335 1 30.2079 15.5255 20.5593
337 1 2.3141 20.743 18.5411
339 1 7.54705 21.1057 18.9149
341 1 12.074 21.4057 20.1012
340 1 9.8556 23.2286 22.5314
343 1 16.7411 20.8262 19.6203
345 1 21.6615 21.7845 20.7545
347 1 25.9903 20.9372 20.6559
349 1 30.65 20.2008 20.7575
1681 1 1.73179 25.4029 19.0121
140 1 34.0138 24.4045 7.15026
1685 1 12.0899 25.9791 19.588
253 1 1.7328 15.9421 13.9364
1689 1 21.3746 26.0994 20.406
278 1 28.9194 22.6582 18.0164
351 1 2.89885 2.46008 24.0419
353 1 7.21825 1.45168 24.4564
286 1 14.5228 3.4061 23.6125
288 1 19.2805 3.59108 24.2145
290 1 23.218 3.87797 23.6121
292 1 27.2463 4.21206 23.8486
294 1 31.9318 3.43943 23.5906
365 1 1.98486 7.10834 24.2328
383 1 11.9802 11.28 24.8825
289 1 20.5429 2.1868 20.1358
284 1 9.8493 4.48811 22.6541
304 1 23.515 8.76961 23.3401
308 1 32.4532 8.09236 22.602
1691 1 26.0486 25.7732 20.5889
296 1 4.98252 9.20536 21.8798
298 1 9.71194 9.36879 22.3967
300 1 13.916 8.20359 23.0292
302 1 18.8214 8.92902 23.5593
306 1 27.5289 8.76445 22.4838
281 1 2.11908 1.96831 18.9927
310 1 5.3674 13.7583 21.3193
312 1 9.80161 13.9531 22.657
314 1 14.5062 14.1562 21.9915
316 1 18.7313 14.1113 22.5299
318 1 23.7857 13.1904 23.0027
320 1 28.2031 13.3224 22.6597
322 1 32.9249 12.8326 23.0274
395 1 7.27338 16.2413 24.6935
328 1 14.4057 18.6188 23.0747
381 1 7.45134 11.52 24.8456
330 1 18.9281 18.7012 21.9338
332 1 23.4689 18.0108 23.0839
334 1 28.0698 18.264 23.7721
336 1 32.8355 17.7698 23.6024
407 1 2.13975 20.8613 24.4611
409 1 6.80045 21.0071 24.5733
411 1 11.614 20.7385 25.3935
342 1 14.2278 23.294 22.6889
413 1 16.6432 21.3783 24.9709
66 1 24.4436 24.7558 1.05597
1753 1 7.23379 25.8493 24.316
338 1 4.82831 23.5991 21.2193
1755 1 11.8808 25.259 24.5722
73 1 6.2615 1.53846 3.15774
1475 1 11.6013 25.7592 4.37836
75 1 11.5058 2.04132 3.90791
393 1 3.24725 16.1099 24.3395
397 1 11.9842 16.1235 25.2337
1623 1 30.8263 25.6772 16.006
183 1 1.69696 16.0019 7.87996
83 1 31.6603 1.71597 3.56856
293 1 29.708 1.48731 21.0727
10 1 25.0489 3.88953 0.0827871
352 1 5.13455 4.18156 27.1413
354 1 9.89136 3.22486 27.2801
356 1 14.0636 3.04457 27.4988
358 1 18.6253 2.77872 28.0015
360 1 23.1014 2.67668 27.5604
362 1 27.7385 3.04999 28.4742
364 1 31.6574 2.79038 28.3323
421 1 2.19297 1.80242 30.1625
373 1 20.6837 6.75266 26.2622
375 1 25.3817 6.56622 26.4192
377 1 30.0223 6.43865 26.4046
389 1 26.0117 11.2006 26.1885
366 1 4.58267 9.45506 28.0674
368 1 8.81797 9.57689 27.6992
5939 1 34.0934 5.72894 26.6548
370 1 13.9628 9.05673 28.7626
589 1 1.51374 12.3246 39.7564
374 1 23.1223 9.30544 29.2294
639 1 20.7664 2.27775 47.6388
547 1 1.61964 21.1287 35.5581
376 1 27.4654 8.62733 29.1273
378 1 32.1286 8.35018 29.3855
380 1 4.6091 13.9666 27.6416
382 1 9.3964 14.3095 27.4463
384 1 13.9979 13.7031 28.1977
386 1 18.6801 14.2902 28.7851
388 1 23.5344 14.1288 29.0138
403 1 26.0781 15.538 25.565
390 1 27.9621 13.127 29.1578
405 1 30.2693 15.4143 25.577
392 1 32.3816 13.0431 29.1281
573 1 30.5187 1.87695 42.3873
394 1 3.98231 18.4785 27.4148
396 1 8.6615 18.7181 26.9975
617 1 1.67804 21.0261 40.9583
398 1 14.3418 18.5272 27.7622
400 1 18.8622 18.8389 28.1915
401 1 21.322 16.1816 25.8304
402 1 23.6188 18.1485 28.7523
404 1 28.127 18.5599 28.2687
406 1 32.7607 17.608 28.4226
1891 1 1.2292 25.2533 35.1136
417 1 26.2609 21.2274 26.361
419 1 30.9861 20.9373 26.451
408 1 4.91179 23.0806 27.2214
410 1 9.01404 22.7556 27.5097
412 1 14.1042 23.3827 28.153
414 1 19.3985 23.5216 27.976
416 1 24.0976 23.7292 28.6286
418 1 28.7033 23.9835 28.1495
420 1 32.4391 24.0904 29.2821
423 1 7.01605 1.53562 30.5383
686 1 34.2545 18.6165 48.855
694 1 19.6134 23.9586 50.0142
435 1 2.93129 6.48607 30.3589
437 1 7.22389 5.80781 29.8629
439 1 12.1207 6.06848 30.3854
441 1 16.3875 6.08096 30.2069
443 1 21.3361 6.02561 30.1899
445 1 25.4491 5.41738 30.8744
447 1 29.9245 5.83705 31.5291
449 1 3.12441 12.0078 30.8929
453 1 11.3341 11.5508 31.4673
372 1 18.4012 9.55797 29.419
455 1 16.3606 11.8068 31.8443
457 1 21.1344 11.944 32.3836
459 1 25.5576 11.3213 32.5443
461 1 29.5481 10.6229 31.761
463 1 2.18744 16.6583 30.5161
451 1 7.39231 11.9223 30.8505
475 1 30.0761 16.0749 32.0151
465 1 6.79362 16.5312 30.5764
467 1 11.6578 16.2304 30.7148
469 1 16.2251 16.4211 31.0516
471 1 21.1089 16.3283 31.161
473 1 25.7404 16.1286 31.539
477 1 2.37322 21.2774 30.9764
479 1 7.13561 21.2823 30.4318
481 1 11.8854 21.2483 30.6764
483 1 16.8159 20.9904 31.1803
485 1 21.2456 20.9197 31.0365
487 1 26.3691 21.1521 31.1864
489 1 31.1593 20.0489 30.9886
1821 1 2.96494 25.2472 30.7557
1823 1 7.11241 25.8463 30.3459
1825 1 11.1998 26.1246 30.5847
1827 1 16.5208 25.8192 30.5145
1829 1 21.1871 25.3998 31.6666
1831 1 25.6578 25.6994 31.6723
1833 1 29.2357 24.1732 31.7537
491 1 2.43056 2.17209 36.241
493 1 6.228 2.34664 36.8655
424 1 9.3865 4.22062 33.6958
426 1 13.7574 3.53759 33.3146
428 1 18.1248 3.65054 34.0334
430 1 22.5738 3.66968 33.8229
432 1 27.2237 3.52613 34.4639
434 1 32.9069 3.38638 34.456
422 1 4.47279 4.44475 33.3389
505 1 2.32499 6.89376 35.6632
507 1 6.94318 6.83317 36.3469
440 1 13.8566 8.13549 33.4633
442 1 18.3925 8.58579 33.7999
444 1 22.3291 7.99101 33.3052
448 1 32.8459 8.23714 34.4202
519 1 3.04153 11.9911 35.292
436 1 5.07088 8.88666 32.5579
438 1 9.35205 8.55659 32.7669
523 1 11.4859 11.0984 36.1909
527 1 20.959 10.6798 36.7212
529 1 24.6907 10.7085 37.328
446 1 26.9942 8.24816 34.1217
531 1 29.9506 10.5268 37.0698
450 1 4.82685 14.6086 33.0521
452 1 9.67142 14.908 34.0292
454 1 14.1592 14.0414 34.0141
456 1 18.407 14.071 34.6489
458 1 22.9255 14.2172 35.0927
460 1 27.5168 13.8389 35.1827
462 1 32.66 12.9881 34.3316
533 1 1.4881 16.4996 35.6466
466 1 10.0199 19.4429 33.7733
468 1 13.9946 18.6095 33.931
470 1 18.592 18.7605 34.1219
474 1 28.1737 18.6035 34.6193
545 1 30.8028 16.7036 36.8093
476 1 32.9566 18.8228 34.3873
464 1 5.11319 18.823 33.896
700 1 33.4915 22.9914 48.965
549 1 7.52315 21.3373 37.264
472 1 23.5343 18.9639 34.3426
478 1 5.15755 23.4936 33.6867
1893 1 7.47005 25.9775 37.0619
480 1 9.70035 23.3672 33.6879
482 1 13.9686 23.8329 33.8795
484 1 18.6869 23.4017 33.934
486 1 23.4286 22.9026 34.7339
488 1 27.8915 23.3771 35.11
490 1 32.5147 23.5354 34.0215
492 1 4.0557 4.92448 39.5473
495 1 11.3161 1.50135 36.9058
494 1 8.76082 4.36667 39.7553
497 1 16.1814 1.53525 36.7676
650 1 13.0599 9.50893 50.6459
502 1 27.8965 3.97116 39.1816
504 1 32.366 3.19019 39.1876
509 1 11.44 6.27844 36.9824
511 1 15.9541 6.26897 36.5175
512 1 18.0082 8.0224 40.2412
513 1 20.3581 6.5501 37.1962
515 1 24.9842 6.38523 36.9844
517 1 30.5382 5.7712 36.6372
516 1 28.2006 8.48199 39.3388
518 1 32.8345 8.68635 39.2165
506 1 4.24968 8.92365 38.6832
521 1 6.67917 11.6969 36.2679
508 1 9.1071 9.59082 38.5345
510 1 13.7168 8.82406 39.5078
525 1 16.3213 10.9642 36.4291
514 1 22.4201 8.72096 39.9214
520 1 4.44344 14.8715 38.9778
522 1 9.47244 13.5373 38.3734
524 1 13.8919 13.2899 38.6843
526 1 18.0504 13.3625 39.3873
528 1 22.5268 13.7975 39.7947
530 1 27.1886 13.159 39.1131
532 1 32.6397 13.9713 39.0799
535 1 7.1704 16.6057 36.6111
537 1 11.5491 16.9721 37.188
536 1 9.99792 19.0224 40.6739
539 1 15.7641 16.9459 37.3262
541 1 20.5512 16.7081 36.7445
543 1 24.8777 16.6318 37.3207
544 1 28.2586 17.6144 39.2795
546 1 32.8559 17.6852 40.1547
534 1 3.61459 19.154 38.0224
551 1 11.8796 21.0262 37.0308
538 1 14.1604 19.0349 40.2454
540 1 18.4013 19.2345 40.3227
553 1 16.5219 21.3112 36.9069
555 1 20.8511 21.429 37.1659
557 1 26.1348 20.752 38.0056
559 1 30.0228 20.6641 37.6813
548 1 3.54731 23.4183 38.0442
550 1 10.1645 23.8655 40.1874
1895 1 11.7086 25.5419 37.3188
552 1 13.9757 23.8705 40.0327
554 1 18.347 24.2061 39.8448
692 1 12.9976 23.6577 49.9617
1897 1 16.2977 25.6428 36.6038
556 1 22.9949 23.9299 40.029
1901 1 25.8856 26.0892 37.1988
385 1 16.2862 11.7055 25.8349
558 1 28.5845 23.8849 40.2676
560 1 32.6418 23.9957 39.5864
567 1 15.4857 1.82867 43.5025
563 1 6.2016 1.78959 42.6081
565 1 10.9302 2.23398 42.8079
602 1 33.4944 12.9115 43.6625
496 1 13.1199 4.43916 39.9384
498 1 18.3909 3.5092 40.3822
500 1 23.2483 3.91626 40.6157
659 1 1.65691 10.601 47.2089
391 1 30.0446 10.6058 25.8756
687 1 1.20991 20.1275 45.9304
577 1 7.1037 7.66286 42.3323
579 1 10.909 6.28566 42.4023
581 1 15.4504 5.5529 43.2147
583 1 20.9341 5.98056 42.5535
585 1 25.3986 7.13963 41.6345
587 1 30.4536 6.03152 42.4517
591 1 7.10719 11.8993 41.0089
593 1 11.1689 11.693 42.0247
595 1 15.351 11.0839 42.6267
597 1 20.1433 11.1095 42.6588
599 1 25.6399 10.999 41.9669
601 1 30.2046 10.7771 41.7
611 1 19.7562 16.2171 42.7103
615 1 29.9535 14.7864 42.6633
676 1 8.66595 19.4381 50.285
605 1 7.15481 16.7613 41.6052
607 1 11.4777 15.6914 42.0879
609 1 15.8 15.8738 42.1832
613 1 25.5386 15.5905 41.7691
616 1 33.9664 18.1854 44.7726
429 1 20.8873 1.48615 31.0293
619 1 6.23947 21.226 41.3944
621 1 12.2649 22.2872 43.0807
623 1 16.5053 22.0419 43.5326
542 1 23.0136 18.539 40.3458
625 1 21.1707 21.7927 42.7144
627 1 25.5275 20.8116 42.2886
629 1 31.0373 20.6683 42.2777
1961 1 1.61795 25.6497 40.7801
1963 1 6.0793 25.6799 41.0983
6108 1 34.0894 20.9872 37.5351
2035 1 9.95549 25.6777 47.5531
371 1 16.5925 6.43592 25.7336
570 1 23.5845 5.04174 45.3249
572 1 27.3191 4.46625 44.5561
574 1 33.7127 4.06107 43.2923
643 1 31.6126 1.42396 46.2921
562 1 3.85167 5.51561 43.5337
647 1 4.4558 7.22543 46.8658
564 1 8.36873 5.46631 45.2202
566 1 12.8961 4.77485 45.886
568 1 18.6341 3.87826 44.97
655 1 25.9507 6.84746 47.6995
657 1 31.395 5.83092 46.2739
576 1 3.26137 10.0071 43.2372
661 1 6.13719 11.8972 46.5324
578 1 9.23102 10.0709 44.8534
580 1 13.4313 9.16763 45.5105
582 1 18.0203 9.09097 44.7899
584 1 23.0468 9.46246 45.0829
586 1 27.7715 8.70307 45.2365
588 1 34.1284 8.69943 43.4792
671 1 31.4328 11.2259 46.4111
590 1 3.96093 14.1013 43.6014
592 1 9.02099 14.375 45.0357
594 1 13.3544 13.7064 45.7948
596 1 17.6896 14.0999 45.1385
598 1 22.946 13.4034 45.0036
600 1 27.7225 12.764 45.2818
604 1 3.58285 18.564 43.343
606 1 9.00047 19.1229 44.2906
677 1 10.9615 16.4364 47.6598
608 1 13.3008 18.2842 45.4102
610 1 18.2023 18.7588 45.049
681 1 20.5735 16.3474 47.1142
612 1 23.9332 18.0124 44.4556
614 1 28.4418 17.7055 44.7342
685 1 31.0305 15.5334 47.2162
1757 1 16.5391 26.0516 25.8596
689 1 5.70136 20.6289 47.127
691 1 11.4137 21.7524 47.2655
695 1 21.6448 21.0752 46.9379
697 1 26.3306 21.2138 46.9512
699 1 30.7522 20.1532 46.9066
618 1 3.43853 22.9732 43.8839
620 1 8.20159 23.2474 44.2044
2033 1 5.28639 25.2498 47.1586
622 1 14.5667 24.7569 46.5301
624 1 19.1489 24.6124 46.0867
626 1 23.8025 24.3092 44.7783
628 1 28.4028 23.5422 44.6853
630 1 32.8444 23.7719 44.226
633 1 5.01786 2.72528 47.1041
635 1 10.6068 2.96571 48.5655
637 1 15.5392 2.5329 48.2618
369 1 11.5138 6.60216 25.7716
698 1 29.201 23.9742 49.2781
641 1 25.8128 2.23146 47.3955
642 1 28.6206 4.21517 50.4437
632 1 2.06485 4.72354 49.9141
634 1 6.85529 5.0589 49.7631
649 1 10.1418 7.60148 48.485
1899 1 20.6674 25.7965 36.945
651 1 15.4603 6.67482 47.9034
653 1 20.1189 6.93671 47.7054
640 1 23.407 4.46292 49.7373
646 1 3.14345 9.24689 50.8148
648 1 6.73124 9.07408 49.7098
663 1 10.3492 11.6934 48.5632
652 1 18.157 9.09033 50.5174
669 1 24.8993 11.2278 47.9127
654 1 22.7856 8.93096 50.0464
656 1 29.3724 8.50129 49.5368
658 1 34.0006 7.93135 48.7868
690 1 8.2543 23.3243 50.1465
660 1 3.37436 13.8969 49.8206
662 1 8.06996 14.7792 49.6537
664 1 12.6492 14.2478 50.441
665 1 15.7445 11.3335 48.1966
666 1 18.662 14.547 51.0326
667 1 20.1907 11.4553 46.8451
668 1 22.8215 14.085 49.7161
670 1 28.615 12.296 49.8597
499 1 19.9781 1.81291 36.9794
674 1 2.94098 17.8028 49.3829
675 1 6.13596 16.6871 46.7481
693 1 15.5741 20.285 47.9835
679 1 16.1781 16.2476 48.2177
680 1 19.1742 19.2777 50.4517
683 1 26.2959 15.3047 47.4998
682 1 23.6161 18.5039 49.6393
684 1 28.3723 17.7154 49.7149
696 1 23.8788 23.2748 49.4027
688 1 2.61464 23.3415 49.2202
6004 1 33.6499 5.44475 31.2959
1761 1 26.0012 25.8832 26.1115
638 1 18.9287 5.12963 50.5889
387 1 21.0121 11.4004 26.1644
603 1 1.19873 16.289 40.7424
1903 1 30.6859 26.0712 36.5551
425 1 11.6812 1.62766 30.8626
741 1 32.0857 11.2897 50.9704
415 1 21.7564 21.1621 25.5527
703 1 4.86025 2.1227 52.6472
704 1 7.61237 4.74623 55.3891
705 1 10.4198 2.7004 53.3328
707 1 15.3338 2.94379 52.9986
1061 1 27.513 1.48462 76.0622
711 1 26.2681 1.8625 52.4956
712 1 29.6062 4.05354 54.8984
713 1 32.1777 2.04096 51.9555
1048 1 30.1975 24.5721 74.1924
717 1 5.08101 6.23597 53.0044
719 1 9.59956 7.31597 53.1191
721 1 15.939 7.33657 53.8318
723 1 21.2103 7.18456 53.3427
725 1 26.95 6.13916 53.223
727 1 32.2889 6.60972 52.0015
733 1 10.0817 11.7891 52.6969
917 1 16.1347 1.88361 67.1674
737 1 21.5384 11.1472 53.2772
739 1 25.6634 11.1335 52.1706
726 1 30.0809 9.41571 53.6358
731 1 5.64387 11.8538 52.3956
735 1 15.2909 11.689 52.9682
740 1 29.4399 13.84 53.9456
1046 1 24.7193 24.8038 73.5872
745 1 6.04496 16.508 52.4671
747 1 9.91292 17.0384 53.9295
636 1 12.8949 4.99333 51.1196
749 1 15.6235 16.4405 53.5235
751 1 21.4892 17.1789 52.6672
753 1 26.5103 15.6443 52.3531
754 1 29.5816 18.4734 54.0539
759 1 4.69905 20.8868 52.3617
761 1 10.1031 21.2816 53.5415
763 1 15.8862 22.0344 51.7852
765 1 22.132 21.0451 52.8774
767 1 26.8163 21.2381 52.1152
769 1 31.5973 20.699 51.5492
1073 1 22.071 6.73768 76.4597
1099 1 17.5963 16.2223 76.3314
1105 1 32.4412 16.0811 75.6525
764 1 19.0837 23.8344 54.6697
766 1 23.395 24.6397 53.9697
768 1 29.6183 24.4582 53.5956
775 1 9.44396 2.75537 58.6819
777 1 15.7928 2.50272 57.7481
708 1 18.826 5.21237 55.438
1109 1 6.0383 21.4876 76.2529
781 1 26.2762 1.86445 57.0893
1119 1 33.2913 22.4261 75.2724
702 1 2.31214 4.65064 55.054
787 1 5.70436 7.29861 58.7155
789 1 10.1865 6.76532 57.8216
706 1 12.953 4.43543 55.9179
791 1 16.3898 6.64381 58.6214
793 1 21.4297 7.89367 57.9882
710 1 23.7615 4.37708 54.3896
795 1 27.953 7.14729 57.2838
797 1 31.8675 6.75773 57.2125
716 1 2.52227 9.31595 55.5261
718 1 7.17091 9.5345 55.4453
720 1 13.1523 9.62533 55.4991
722 1 18.3712 9.88133 55.8688
807 1 22.0896 12.2993 57.2332
724 1 24.6649 9.03326 55.0438
809 1 27.3697 11.8825 56.6177
811 1 32.1134 11.5486 57.1942
730 1 3.12983 13.7667 54.4341
732 1 7.95797 14.1978 55.8477
803 1 10.9959 11.7048 58.4155
734 1 12.6413 14.2348 55.727
736 1 18.5559 13.7915 55.6364
738 1 23.6308 14.533 54.3826
823 1 26.8323 15.685 56.1415
744 1 2.74342 18.7667 55.0858
815 1 4.34214 15.9454 58.3491
746 1 7.33289 18.7503 56.1037
819 1 16.7662 16.9822 57.6509
821 1 21.5079 17.1165 57.1361
752 1 25.024 19.3731 54.9275
825 1 32.6955 16.1739 57.2289
829 1 4.19407 20.61 58.5166
831 1 10.5153 21.4475 58.3133
748 1 13.7462 19.4103 55.1345
750 1 18.4396 19.2397 54.6504
833 1 16.2052 21.2859 57.9665
835 1 21.6495 21.6233 56.9524
839 1 32.6962 20.6805 56.0055
758 1 2.68828 22.8218 55.8495
760 1 7.41432 22.9426 55.7065
1085 1 16.756 11.6246 76.1135
762 1 13.5335 23.3222 54.6356
837 1 26.2836 22.7454 56.3232
919 1 21.8775 1.6561 66.7481
773 1 4.7969 2.77271 57.4072
776 1 12.8149 4.3841 60.6488
847 1 16.2602 1.9366 62.5841
778 1 19.2532 4.09187 59.8169
780 1 24.1736 5.00334 58.9349
851 1 26.498 1.87924 61.6577
782 1 29.3532 3.59112 59.6846
714 1 34.4236 4.66769 55.3411
709 1 21.4782 1.98995 53.0443
772 1 2.18899 4.892 60.8624
774 1 7.70302 5.01649 61.4014
861 1 15.8479 6.73803 63.191
786 1 2.70203 9.02281 60.2662
801 1 5.28265 11.9782 58.4114
788 1 8.18466 9.63833 61.2332
790 1 13.5168 8.97356 60.1095
792 1 19.1014 10.105 60.0184
794 1 25.2302 9.70969 59.5997
796 1 29.3497 9.55542 60.1462
2105 1 10.4013 25.6269 52.4519
881 1 32.8879 11.1838 61.6924
1083 1 12.0529 11.8763 76.52
802 1 8.12831 14.6453 60.943
804 1 13.3082 14.4798 60.4119
805 1 15.687 12.4766 57.6947
806 1 19.2055 14.6219 60.3207
808 1 25.1123 14.3876 59.6717
810 1 29.7206 14.1122 59.995
817 1 10.5487 17.1444 57.8458
818 1 13.7704 19.1749 60.5269
820 1 19.5519 18.69 59.8286
822 1 24.9396 19.1412 59.0238
824 1 29.2745 18.1465 57.9096
895 1 31.6338 17.3973 61.5978
814 1 2.06096 17.7668 61.2012
816 1 7.27997 19.2865 60.9104
905 1 22.7532 21.5354 61.3868
907 1 26.7535 22.2515 60.8881
909 1 31.4107 21.3555 60.8009
828 1 2.19419 23.7987 60.274
830 1 7.50083 24.0353 60.4483
800 1 1.76026 13.7234 61.1506
832 1 13.0944 24.0127 60.3178
834 1 19.4798 24.1 59.2537
836 1 24.027 24.9788 58.5596
838 1 30.1122 24.2192 58.682
843 1 5.28056 2.2424 63.2347
845 1 9.91823 1.56163 63.1199
846 1 13.5281 3.59953 65.2686
848 1 18.7203 4.62702 64.2008
850 1 23.8319 4.661 64.6488
852 1 29.3541 3.78914 64.3833
1044 1 19.9368 24.4501 74.0226
842 1 2.49783 4.9523 65.7745
857 1 5.11014 7.51919 63.223
844 1 8.46503 5.29698 64.988
859 1 11.3763 7.15989 63.0804
863 1 22.2304 6.92171 61.9379
865 1 26.7984 6.38316 61.546
867 1 32.2458 6.02959 61.4601
856 1 2.33292 9.68601 66.2736
860 1 14.1838 9.78989 65.5018
862 1 18.7907 9.29738 64.6732
875 1 16.0618 11.1089 62.2728
877 1 22.2429 11.7211 62.003
864 1 25.4306 9.47582 64.5337
866 1 29.2814 9.27784 64.2531
871 1 4.39921 11.4243 63.0456
872 1 7.9809 13.9742 64.9116
873 1 11.2942 11.8556 62.3794
874 1 13.9638 14.3965 65.2669
876 1 19.2741 14.9278 64.1527
879 1 26.9106 12.8718 62.674
878 1 24.0956 15.2062 64.4952
880 1 30.3715 13.6821 64.3659
884 1 1.94302 18.6854 65.6997
885 1 5.28174 16.3369 62.8792
887 1 10.119 17.3553 62.7207
889 1 16.537 17.1891 62.1527
891 1 22.5043 16.7804 61.4903
893 1 27.1678 17.7236 62.0801
899 1 4.7705 21.1489 62.9855
901 1 10.0403 21.3127 62.8566
888 1 13.7182 19.298 64.8013
903 1 16.6918 21.9 62.2645
890 1 19.6172 19.6994 64.3532
892 1 24.0139 20.0686 64.6992
894 1 29.665 20.0557 64.0073
910 1 34.1792 24.2314 63.1171
898 1 2.83299 23.9987 65.6355
900 1 7.3015 24.3336 65.1816
902 1 13.2082 23.9803 64.7892
904 1 19.5686 24.1527 63.8979
906 1 24.5248 24.673 64.2759
977 1 26.8565 21.9857 65.8391
908 1 29.5606 24.5555 63.3234
913 1 5.89807 2.02888 67.2948
915 1 11 2.3597 67.6609
918 1 19.9502 3.62968 69.5975
920 1 24.3522 4.8829 69.1039
921 1 26.8293 2.27877 67.3452
922 1 30.1014 4.94605 68.9369
927 1 5.73731 7.57626 67.7705
929 1 11.2688 6.9456 67.702
931 1 16.607 6.14389 67.3611
933 1 21.7333 7.46231 66.6866
935 1 27.6619 6.38109 66.2546
937 1 32.2033 6.61304 66.1946
858 1 8.1215 9.42996 65.1323
943 1 10.4149 12.4602 67.6631
932 1 19.07 9.41104 69.4676
945 1 17.1229 12.3533 66.4732
947 1 21.9704 12.0309 66.731
934 1 24.5571 8.73484 68.7962
870 1 3.10194 14.3224 65.6837
941 1 5.819 12.1884 68.0712
946 1 18.8752 14.4865 69.0013
949 1 26.2878 12.4559 66.4575
950 1 31.1517 13.9495 68.9308
951 1 33.0655 11.2837 66.2606
955 1 5.48304 16.9463 68.7286
886 1 7.39612 18.4172 65.4348
957 1 11.1352 16.2921 67.432
959 1 17.0445 16.4769 66.7521
961 1 21.8542 17.7397 67.0024
963 1 28.0886 16.6492 66.6086
965 1 32.5087 16.8922 66.2274
969 1 4.52805 21.2201 67.56
971 1 10.9621 20.9837 67.3725
973 1 16.6428 22.3927 66.9234
975 1 22.207 22.25 67.5175
964 1 30.1172 19.6842 68.5558
979 1 33.1968 21.4949 65.9015
2323 1 32.784 25.9013 66.5669
853 1 31.308 1.31725 61.9133
972 1 13.5156 23.9714 69.3031
976 1 25.4921 23.4849 69.1339
978 1 30.0943 23.9224 68.6116
981 1 1.40062 2.48999 72.4276
912 1 3.49025 4.68195 70.198
983 1 6.37073 2.08609 72.6639
985 1 10.1465 2.61907 72.5285
916 1 13.5279 3.97631 69.9716
987 1 16.5614 1.93423 71.8371
1071 1 17.4259 6.71499 76.2084
779 1 21.6618 1.91424 56.9796
997 1 5.12128 7.61469 71.9827
914 1 8.17116 4.65802 70.0009
999 1 11.2311 7.31456 72.2038
1001 1 17.2069 6.17945 71.9397
1003 1 21.7407 6.56619 71.3855
1005 1 27.3359 6.24473 71.4683
1007 1 32.6586 7.06879 70.9201
926 1 2.02494 10.1026 70.7321
928 1 8.38707 9.84331 69.7993
1013 1 11.7352 11.6558 71.7745
930 1 14.4965 9.43491 70.0983
1015 1 17.5697 11.6503 72.162
1017 1 21.9167 11.5421 71.2474
936 1 29.2957 9.5615 68.788
1019 1 27.2657 12.528 70.9416
1021 1 33.0373 10.9238 70.777
940 1 3.06749 14.3284 70.6083
942 1 8.68524 14.7538 70.8033
1011 1 5.4848 11.9148 72.5959
944 1 14.4488 14.1073 69.9499
948 1 24.6372 14.9376 69.2909
954 1 2.57212 19.0688 70.2206
1025 1 5.31917 16.7034 72.5963
1027 1 11.8171 16.7533 72.0864
1029 1 16.6319 16.7736 72.4786
1031 1 21.0092 17.2547 70.9512
1033 1 28.5254 16.8832 70.708
1035 1 33.2958 17.0776 70.9289
1039 1 5.89739 21.7767 72.185
956 1 8.86804 18.8798 69.9082
1041 1 10.6139 21.3712 72.2561
958 1 14.049 19.2081 69.5699
960 1 18.5589 19.9923 69.5254
1045 1 22.2417 21.8338 71.891
962 1 25.0447 19.1088 69.2522
1047 1 27.5974 21.6481 71.7561
1049 1 33.49 21.6831 71.0213
968 1 2.04118 23.6748 70.171
970 1 8.8015 24.2288 69.297
2175 1 10.8384 25.5244 57.4286
974 1 19.3828 24.5522 68.7204
1043 1 16.4927 22.6909 71.752
982 1 4.06791 4.02047 74.8
986 1 13.9315 4.33214 74.7235
2103 1 5.01174 24.7934 52.3127
988 1 20.4002 3.40051 74.027
755 1 31.9329 15.9229 51.7686
990 1 25.0981 4.13023 73.8298
992 1 30.8465 4.45649 73.4381
984 1 8.13162 5.48281 75.3002
1042 1 13.1644 23.9661 74.1833
2245 1 10.2453 26.155 62.3043
849 1 21.9134 2.06074 62.0926
1075 1 27.3262 6.38221 75.9942
1077 1 32.9391 7.08651 75.4716
996 1 1.82153 10.2973 74.5829
998 1 8.20798 9.9904 74.4911
1000 1 14.4221 8.6644 73.9887
1087 1 22.1381 11.3561 75.7408
1002 1 19.4734 8.88023 73.8575
1004 1 24.5698 8.54821 73.686
1089 1 26.5759 11.5129 75.4921
1006 1 29.0765 9.14449 73.3413
1010 1 3.2716 14.5734 75.2317
1012 1 8.53582 14.1879 74.775
1014 1 14.1843 14.2218 73.8505
2393 1 31.9667 26.2138 71.1541
1016 1 19.9152 15.0064 73.6127
1018 1 23.6282 14.3082 73.6372
1020 1 30.0146 13.4928 73.5132
1091 1 32.6501 11.4295 75.4329
1024 1 2.79633 19.8849 74.7041
770 1 34.3322 23.2845 53.7074
1040 1 8.48473 24.1376 74.3892
1103 1 27.5105 16.4837 74.8634
1117 1 27.3839 21.9829 75.708
1026 1 8.4193 18.9281 74.5085
1028 1 14.783 19.6038 74.0377