ITEM: TIMESTEP
17000
ITEM: NUMBER OF ATOMS
16000
ITEM: BOX BOUNDS pp pp pp
8.3494789236261369e-01 1.0136505210763704e+02
1.9580295847539446e+00 1.0024197041524734e+02
-6.6306279262537515e-01 1.0286306279262595e+02
ITEM: ATOMS id type x y z
71 1 2.3798 2.36498 2.83259
73 1 7.20335 2.52708 1.99467
75 1 11.8979 2.80803 1.8153
1683 1 7.03433 26.1687 19.0212
6 1 14.9538 5.01365 -0.477916
77 1 16.5786 2.61708 2.4384
1541 1 1.11124 25.9707 8.46839
1471 1 1.03133 26.0405 3.93634
413 1 15.7806 21.2841 24.4907
10 1 24.3692 4.54929 0.247159
12 1 28.1762 4.3182 -0.0519817
14 1 32.7739 4.00719 0.342043
85 1 2.26186 6.67159 2.53197
1547 1 17.2727 26.0251 8.2914
16 1 4.13226 9.66862 0.494262
18 1 9.38245 10.2066 -0.490928
20 1 14.1586 10.2019 -0.161643
22 1 19.6578 9.79215 -0.0803454
107 1 22.2928 11.2972 2.30556
24 1 24.4848 9.17257 -0.174308
109 1 26.5532 12.7688 1.81908
111 1 30.9469 11.4645 2.67734
28 1 33.2781 9.18228 0.479263
30 1 3.66153 14.3551 0.844662
32 1 9.22624 14.9308 -0.0692327
34 1 13.9662 14.7887 -0.0248282
36 1 19.6608 14.718 0.193314
2 1 4.48887 5.18482 -0.308697
40 1 29.4115 15.0343 -0.302026
42 1 33.8991 14.231 0.901235
44 1 3.31334 19.1748 0.980963
46 1 9.14367 19.5086 1.20202
119 1 17.2617 16.9394 2.64651
50 1 19.3561 20.2177 0.0528766
121 1 21.872 17.2978 2.74997
52 1 23.8464 19.2772 -0.0511091
123 1 26.5017 16.7118 2.84986
1751 1 1.9752 26.2317 25.0592
129 1 5.75758 22.0549 3.07049
48 1 14.1879 19.9752 0.0164742
135 1 23.0242 22.3758 2.00201
56 1 33.9211 19.0766 1.33961
221 1 26.0694 2.77706 13.9545
58 1 3.51954 23.8655 0.728228
60 1 9.53805 23.8495 1.0793
62 1 14.2509 24.0841 0.441179
1477 1 16.7099 26.1395 4.01482
64 1 19.133 24.8821 0.505186
1479 1 22.0981 26.1282 2.46297
66 1 25.5181 24.5874 0.0926668
68 1 29.1212 24.3082 0.291224
70 1 33.5499 22.8775 -0.159739
72 1 5.35634 4.94155 5.53162
74 1 9.36076 4.79787 5.188
76 1 13.3762 4.8842 5.01642
78 1 19.4609 4.9459 3.73561
80 1 23.3113 4.7615 4.95168
82 1 28.8911 4.482 6.25184
84 1 33.5273 3.50923 6.30357
87 1 7.02815 7.44906 2.20721
89 1 11.0031 8.32419 2.31359
91 1 16.4607 6.9883 2.43709
92 1 19.5552 9.50512 5.13003
93 1 22.0047 7.72492 2.46559
95 1 26.5995 7.016 2.54205
97 1 30.9489 6.07516 3.3419
99 1 2.48678 12.0516 3.67177
86 1 4.62589 9.56251 5.22641
88 1 9.3483 9.47763 5.71169
90 1 14.063 9.66453 5.73368
103 1 11.7468 12.5953 3.02794
105 1 16.896 11.6005 2.29567
94 1 24.8527 10.1754 5.23402
96 1 29.1565 9.18214 5.50787
98 1 33.915 8.83657 5.01772
101 1 6.97975 12.5142 2.53438
100 1 4.72159 14.3267 6.156
102 1 8.87539 15.216 5.6546
104 1 15.1875 14.249 5.78044
106 1 19.8382 14.3275 4.82091
108 1 24.1536 15.0236 5.28218
110 1 28.9646 14.5139 5.56548
112 1 33.3698 13.8755 5.83578
113 1 1.77417 16.6478 3.28696
115 1 6.38107 17.2728 2.745
116 1 8.94728 19.2623 5.37902
117 1 12.738 17.2396 3.495
118 1 15.6759 19.2321 6.11532
120 1 20.0649 20.1299 5.93874
122 1 24.457 19.5397 5.51719
124 1 28.2887 19.4284 5.96583
125 1 31.1919 17.0277 3.22416
127 1 1.11696 21.4328 3.38717
114 1 4.4134 19.0845 6.12765
131 1 12.2644 21.0952 3.67783
133 1 17.4207 21.6844 3.11993
136 1 24.6213 23.7654 5.61803
137 1 27.3312 21.6997 2.60412
139 1 31.4122 21.4799 3.18025
365 1 2.44893 7.42736 24.911
130 1 8.69838 23.1723 5.36278
1475 1 11.561 25.7327 3.95305
132 1 14.8577 23.8017 6.39379
134 1 20.1242 23.6702 4.76535
1481 1 27.3785 26.3906 3.09695
138 1 29.2357 23.9408 6.43774
1483 1 31.9852 26.2976 3.69154
141 1 2.71219 3.51602 8.40124
143 1 7.24626 2.9374 8.56249
145 1 11.984 2.92157 8.31032
147 1 16.2816 3.14485 7.63134
149 1 21.7097 2.6569 7.97533
155 1 1.85289 7.25329 8.34724
157 1 7.24389 7.47151 8.87911
159 1 11.7953 7.42675 8.45012
161 1 17.1822 7.20094 7.14475
163 1 21.5 6.67359 7.63209
165 1 26.1616 7.49974 7.59874
167 1 30.8964 6.96264 8.02778
169 1 1.54151 11.6386 8.37425
171 1 7.22051 11.6485 8.39392
173 1 11.7297 12.3106 7.93054
160 1 14.2955 9.45077 10.5524
175 1 17.3413 11.4942 7.64401
177 1 21.9001 11.5612 7.54129
181 1 31.0206 11.7112 8.72755
187 1 11.9387 16.6939 7.88894
174 1 15.23 13.9782 10.4786
179 1 26.6134 12.2112 7.90581
195 1 31.163 16.6085 8.4009
185 1 7.25415 16.9015 8.71691
189 1 17.9707 16.7628 8.47815
191 1 21.8174 17.2929 8.03101
193 1 26.5239 16.8687 8.57102
126 1 33.5874 19.7085 5.70385
183 1 0.873233 16.4473 8.15618
199 1 7.07577 21.3578 9.23031
201 1 11.8987 21.0488 8.34203
203 1 17.7422 21.4859 9.21783
205 1 22.3003 21.6272 9.1696
207 1 26.4573 21.8145 9.56352
209 1 30.9806 20.5981 9.32535
128 1 4.11397 23.2164 6.56291
1543 1 7.01234 25.7449 8.97199
1545 1 11.5195 25.6354 7.8748
1551 1 26.8124 25.8802 9.1662
1549 1 22.1851 26.3065 8.58677
140 1 33.071 23.5515 6.53478
142 1 3.80121 5.58522 11.3173
213 1 6.81451 2.8122 13.2922
144 1 9.84889 4.45426 11.3218
215 1 12.3947 2.49648 13.5325
146 1 15.0905 4.94141 10.682
217 1 16.71 2.24086 14.0806
148 1 18.9269 4.78347 11.0565
150 1 24.3054 4.8164 11.204
152 1 28.4175 4.89693 11.3389
154 1 32.6254 4.4137 10.7944
227 1 7.48215 7.47257 13.5839
229 1 12.0796 7.30362 14.0148
231 1 16.9407 6.88661 13.6121
237 1 30.5285 6.83256 14.4003
168 1 33.2534 9.27758 11.0881
156 1 4.19002 9.56287 11.414
241 1 6.40747 11.5378 13.5991
158 1 9.95226 10.1214 10.8416
243 1 11.9939 12.4639 13.4418
245 1 17.2061 11.577 13.6802
162 1 19.5264 9.03371 10.7054
247 1 21.8496 12.1385 13.3417
164 1 23.8334 9.86013 10.458
166 1 28.5332 9.09004 10.2522
170 1 4.70582 14.3 10.6452
172 1 9.32249 14.4632 11.273
176 1 19.7941 13.6862 10.686
178 1 23.8172 14.5492 10.5117
180 1 28.6399 14.131 11.5556
182 1 33.3018 13.5745 11.5964
184 1 3.64433 18.8291 10.8742
255 1 6.5672 16.3428 13.3459
257 1 12.1437 16.5144 13.0186
186 1 9.1925 19.2131 11.5272
188 1 15.282 18.7535 10.7213
190 1 19.8072 18.964 11.987
192 1 24.164 18.2575 11.8572
194 1 28.7789 18.9041 12.244
198 1 3.58158 23.2161 11.5342
196 1 33.3267 18.7061 12.9865
1611 1 0.928509 26.0693 14.2087
1613 1 6.3233 26.0346 13.7949
200 1 9.81917 23.8138 11.2847
1615 1 12.1955 26.3802 13.8695
202 1 14.4722 23.4408 10.9438
399 1 16.3465 16.5807 24.7758
204 1 19.1359 24.3806 11.2077
206 1 23.9238 23.7397 11.7027
208 1 28.8114 23.751 11.8228
210 1 32.9884 23.0956 12.5367
211 1 1.89166 2.80316 14.3555
212 1 4.78428 5.16765 16.9865
214 1 9.61363 5.18291 16.2033
216 1 14.1502 5.11013 16.8118
218 1 19.0956 4.93883 17.1152
219 1 21.4499 2.55562 14.5247
1553 1 31.3469 25.8557 9.33437
222 1 28.3331 3.91084 17.2024
223 1 30.5042 2.08998 14.5018
225 1 1.49611 7.60567 14.6092
230 1 14.8451 9.74215 16.7636
233 1 21.6795 7.46112 13.8653
235 1 25.8785 7.31535 13.5759
236 1 27.8488 8.54268 16.7224
238 1 31.8922 8.77984 17.6259
239 1 2.70109 12.1242 13.8537
226 1 5.57264 9.21398 16.6065
228 1 9.94918 9.98401 16.0478
232 1 18.7639 9.33468 16.392
249 1 26.4544 11.4546 13.7258
234 1 23.4283 9.60421 16.9233
251 1 30.6252 11.3015 13.8416
240 1 4.50926 14.9663 16.0902
242 1 9.44068 13.945 15.8173
244 1 14.3652 14.0734 16.4333
246 1 19.2939 13.5392 16.9194
248 1 23.5066 13.4749 16.9087
250 1 28.1192 13.3349 17.7467
252 1 32.603 13.3724 17.8148
253 1 1.47191 17.573 14.5788
254 1 4.5214 19.361 16.2432
256 1 8.99261 18.6444 15.8267
258 1 15.0612 19.0302 16.1581
259 1 17.4205 16.2345 13.6769
260 1 19.3087 19.3181 16.4386
261 1 22.0661 16.5831 14.487
263 1 25.9931 15.926 15.3619
262 1 23.6923 19.6138 16.7238
264 1 28.6338 18.3866 18.0716
265 1 30.4358 15.8598 14.6745
267 1 1.76711 21.4814 14.3089
269 1 6.35686 21.2973 13.1129
271 1 12.0778 20.631 13.7317
273 1 16.5668 21.6619 13.5977
275 1 21.3528 21.6828 14.0624
277 1 26.9648 22.0839 14.364
279 1 30.4871 20.7649 15.6845
268 1 5.0116 23.8537 16.6062
270 1 9.70261 23.3969 15.2749
272 1 14.0963 23.7058 16.6155
274 1 18.5416 23.9268 17.1099
1619 1 21.6415 26.3703 14.8732
38 1 23.8493 14.5378 -0.65191
26 1 28.6222 8.95255 -0.448515
281 1 3.1267 3.23328 19.8505
283 1 7.65331 3.04453 19.8645
285 1 11.7872 2.80898 19.9018
287 1 16.2714 3.19565 20.6408
289 1 20.9716 3.38737 20.399
220 1 23.7951 5.09972 17.2403
291 1 25.8157 2.54906 20.7454
293 1 30.0426 2.24846 21.2616
224 1 32.6396 3.99141 17.6578
295 1 3.10683 7.90215 19.1406
297 1 7.70201 7.74511 19.5907
299 1 11.9451 7.48505 19.4236
301 1 16.2565 7.68488 20.6991
303 1 20.6734 6.99779 20.1147
305 1 25.5104 6.94754 20.2799
307 1 30.1437 6.29179 20.8575
309 1 2.6827 12.3853 18.6875
311 1 7.35019 12.1565 18.7185
313 1 11.9664 12.2174 19.2711
315 1 16.2478 12.0203 19.2897
317 1 21.2891 11.5739 20.2238
319 1 25.6807 10.8098 20.3537
321 1 30.4227 10.7835 20.8119
325 1 7.58572 16.7701 18.9428
327 1 12.3243 16.9091 18.9542
329 1 16.1761 16.6634 18.7311
323 1 2.15085 16.5951 18.7426
324 1 6.0948 19.4478 22.138
331 1 21.0703 16.1946 20.0318
333 1 25.2424 16.2192 19.4151
266 1 32.9943 18.0562 17.6872
335 1 30.6354 15.1366 20.614
337 1 2.66277 21.0588 20.2592
339 1 7.61682 21.5263 19.0693
341 1 11.6737 20.9521 18.5636
343 1 16.7923 21.2761 19.7048
345 1 21.3323 20.8538 19.3034
347 1 25.3212 20.7327 20.019
349 1 30.2108 20.7836 20.7411
1693 1 30.0867 25.5207 20.9214
1473 1 5.88407 26.2361 3.5479
1685 1 11.1603 25.89 19.2658
1691 1 25.2184 25.9577 21.0621
79 1 21.8829 2.31867 1.7767
348 1 27.972 22.9765 22.8639
276 1 24.1994 24.0892 17.5017
278 1 28.095 23.7478 18.1183
280 1 32.9284 23.8365 18.4907
344 1 18.4808 23.958 21.8467
282 1 4.97772 5.27794 22.5653
284 1 9.36496 5.54181 22.865
286 1 14.0373 5.33236 23.1773
288 1 19.0288 5.50318 23.5456
290 1 23.1976 5.31577 23.7432
292 1 27.7756 4.93242 24.4567
294 1 32.1181 4.43366 23.7561
379 1 2.59616 11.9474 25.1789
296 1 4.75921 10.1686 22.0475
342 1 14.418 23.5727 21.6977
298 1 9.49856 10.0949 22.3591
300 1 13.8022 10.0221 23.2362
302 1 18.4001 9.49337 23.3516
304 1 23.1654 9.71744 23.202
306 1 27.4149 8.76419 23.9374
308 1 31.737 9.21253 24.0693
310 1 4.65811 15.0251 22.3378
1623 1 30.4059 25.578 15.6633
312 1 9.32919 14.9925 21.9345
314 1 14.1315 14.5717 22.3384
316 1 18.8129 14.1295 23.0784
318 1 23.4128 14.1304 22.8271
320 1 27.6536 13.4174 23.3854
322 1 32.3947 13.7939 23.8237
346 1 23.1379 22.9101 22.1085
326 1 9.90891 18.7339 21.9932
328 1 13.8107 18.9066 22.3137
330 1 18.5739 18.5956 22.0448
332 1 23.5253 18.8313 22.9534
334 1 27.5652 17.9771 22.7791
336 1 32.1795 18.4583 23.5145
407 1 2.23077 20.9811 24.5342
340 1 9.8189 23.5137 22.2929
350 1 32.3173 22.8868 24.2073
1681 1 2.35396 25.5947 18.9376
381 1 7.25057 12.49 25.1649
338 1 5.01661 23.8577 22.1197
352 1 4.90181 4.26007 27.0325
354 1 9.38999 4.11742 27.0296
356 1 14.1467 4.05276 27.5455
358 1 18.623 3.68868 27.643
360 1 23.3439 4.02273 28.0414
362 1 27.867 3.73494 29.0108
364 1 32.4629 3.55008 29.3956
533 1 1.04851 17.1901 35.5041
367 1 7.08229 8.1619 25.7188
369 1 11.7306 8.09853 26.011
371 1 16.2146 7.27085 25.7209
373 1 20.9699 7.88978 27.0095
375 1 25.4509 7.80448 27.1158
377 1 30.0431 6.88232 27.3259
1759 1 20.825 25.2022 25.5641
366 1 4.62301 9.43504 28.4622
368 1 9.32699 10.0817 28.5541
383 1 11.9888 12.2688 25.8062
372 1 18.5407 9.86374 28.8943
385 1 16.2165 11.9228 25.424
387 1 20.8008 12.0589 25.8882
389 1 25.6345 12.4135 26.5663
391 1 30.0652 11.4735 26.8646
380 1 5.21979 14.0353 28.2865
382 1 9.37271 14.8007 28.5697
384 1 13.7639 14.2385 28.627
396 1 9.24464 19.3371 28.4813
421 1 2.02485 2.07183 30.0882
398 1 13.8944 18.6299 27.9951
400 1 17.8909 18.6059 28.7675
425 1 11.8007 1.9469 31.0405
401 1 20.6787 16.6294 25.3078
403 1 25.0996 16.1799 26.2138
405 1 30.2474 16.1328 26.1981
394 1 4.84148 19.3974 28.5984
575 1 0.92142 7.52402 41.598
690 1 7.79332 23.4382 50.3772
415 1 20.5045 20.8818 25.4971
417 1 25.1143 20.7615 25.5718
419 1 29.8229 20.3622 25.8987
408 1 4.21813 23.8058 27.1368
410 1 9.06302 23.2234 27.9761
412 1 13.86 23.3877 28.3852
414 1 18.3458 23.1779 28.1151
2035 1 9.96785 25.8204 47.5368
416 1 22.9816 23.4333 28.8849
1821 1 2.2756 25.7584 29.8427
1763 1 29.6112 25.3296 25.6701
700 1 33.58 24.1139 48.9124
673 1 1.10413 17.0036 47.0489
573 1 30.0844 2.18146 43.1568
435 1 2.53371 6.35948 30.0538
437 1 7.34981 5.86616 29.5299
439 1 11.9905 6.54969 29.7632
441 1 15.722 6.30118 30.4028
443 1 20.4286 5.94304 31.1505
445 1 25.0183 6.49643 31.6748
447 1 29.4628 5.77688 31.8715
451 1 6.96658 12.2279 31.8992
453 1 11.4338 12.6793 31.4699
370 1 13.9671 9.83009 29.0221
455 1 16.0286 12.5916 31.6511
374 1 23.1872 9.95476 29.5779
457 1 20.7463 12.2564 31.9065
459 1 25.2645 11.9618 33.2494
376 1 27.9104 9.4364 30.4575
461 1 30.0061 12.0527 33.0335
378 1 33.1199 9.75919 29.7725
449 1 2.44141 11.4786 31.0824
386 1 18.3796 14.6176 28.6784
388 1 22.6994 14.1493 29.5376
390 1 27.235 14.0938 29.7085
392 1 31.9916 14.2178 30.1841
463 1 2.88448 16.6754 31.0594
465 1 6.73027 16.7032 31.5475
467 1 11.6824 17.2961 31.8923
469 1 15.6476 17.1624 31.8336
471 1 21.0182 16.8763 32.0406
402 1 22.5192 18.9908 28.9973
473 1 24.9361 16.4919 32.7858
404 1 27.1992 18.527 29.3022
406 1 31.2977 18.115 29.741
477 1 2.4569 21.3547 31.0669
479 1 6.60879 21.6311 31.4986
481 1 11.2084 21.9976 31.6709
483 1 16.0015 21.018 31.254
485 1 20.7676 21.4101 31.3339
487 1 25.6763 21.3104 31.9444
489 1 29.5176 21.0304 32.0816
680 1 18.204 18.4206 50.8793
1823 1 6.61327 26.1061 30.2321
1825 1 11.2489 26.0622 31.327
1827 1 16.0515 25.3426 31.4938
1829 1 20.5446 25.8595 31.6799
1831 1 25.2097 25.9044 31.8804
418 1 27.6849 23.3586 28.6253
420 1 32.1142 23.348 28.9723
422 1 4.73571 4.74554 33.3292
424 1 8.99798 4.71728 33.9207
426 1 13.6041 5.10041 34.0756
428 1 17.974 4.45265 34.3071
430 1 22.6811 3.93465 34.7318
432 1 27.5057 3.99695 35.0321
638 1 17.987 5.32724 51.001
434 1 33.1529 3.17304 33.464
505 1 2.5488 7.1829 36.6683
507 1 6.77131 7.13005 36.1255
438 1 9.19784 8.83993 32.6969
440 1 13.7955 9.48769 33.3041
442 1 18.2493 9.59886 33.4642
519 1 2.04632 11.4223 35.9698
436 1 4.45168 8.5562 32.8643
521 1 5.98991 12.0062 36.4486
525 1 16.4821 10.8749 36.7556
444 1 22.7866 8.72949 34.1929
446 1 27.4987 8.72579 35.0363
448 1 31.9405 8.77859 34.4352
450 1 4.60289 14.7021 33.9805
452 1 9.45609 14.4798 34.5479
454 1 14.1705 14.258 34.6596
456 1 18.0756 14.585 34.7697
458 1 22.7862 14.4388 35.6639
460 1 27.9289 14.4326 36.0856
462 1 32.2768 15.0966 34.6655
464 1 4.81014 19.2442 33.9869
427 1 15.5596 2.34775 30.9004
466 1 9.65306 19.1999 34.2943
468 1 14.3788 19.5108 34.5583
472 1 22.6276 18.9528 34.9466
474 1 27.1775 19.1522 34.8212
475 1 29.3668 16.3261 32.8474
476 1 32.9218 18.8015 34.7145
497 1 15.9749 2.55602 37.2493
470 1 18.1078 19.1048 34.3076
478 1 4.17979 23.8112 33.5719
393 1 2.19742 16.4269 25.5309
480 1 8.68257 23.7832 34.4103
482 1 13.5006 23.2729 34.5954
484 1 18.1488 23.2125 34.4892
486 1 22.991 23.4363 34.9425
1833 1 29.7876 25.2988 32.3658
488 1 26.9042 23.7702 34.6751
490 1 32.3039 23.6023 35.0397
491 1 2.39733 2.76519 35.9063
492 1 3.38985 4.66447 39.5362
493 1 6.22688 2.61607 36.3174
494 1 8.07355 5.07095 39.4303
496 1 13.2106 5.14743 39.6614
498 1 17.8464 4.5133 39.987
500 1 22.4853 4.22698 40.9716
411 1 12.0298 21.7178 25.2851
502 1 27.9724 4.19754 39.4339
504 1 32.4645 4.0621 39.4878
509 1 11.2601 7.14538 36.6193
511 1 15.948 7.14673 36.555
512 1 17.5354 8.94037 40.8346
513 1 20.6194 6.52449 37.505
515 1 25.0223 6.66923 37.6503
517 1 30.8637 6.18374 37.1002
516 1 28.175 8.67933 39.9242
518 1 33.3184 9.46956 38.8724
506 1 3.88229 9.20323 39.5509
523 1 11.4662 11.2327 37.0743
508 1 8.61864 9.57349 39.5522
527 1 20.532 11.3151 37.0244
529 1 25.086 11.3816 37.7826
520 1 2.89166 14.2307 38.0305
522 1 9.16752 14.3626 39.2164
524 1 14.1233 13.2357 39.1093
526 1 18.3824 13.5984 40.133
543 1 25.2227 16.8078 38.4809
531 1 30.3584 11.4124 37.4875
532 1 32.5247 13.9229 39.1823
534 1 2.78242 19.1426 38.7594
535 1 6.45502 16.9691 36.9406
537 1 12.1982 16.525 37.6764
539 1 16.1558 16.833 37.9945
541 1 20.6521 16.5597 38.6825
545 1 29.6551 17.4925 37.8826
546 1 33.7123 19.0449 39.7214
549 1 6.57344 21.6359 37.163
551 1 10.9031 21.0175 37.3511
536 1 9.07074 17.9997 40.251
553 1 16.1859 21.4254 37.9486
555 1 20.4746 20.8521 37.841
557 1 24.2872 21.2739 37.8839
559 1 29.6656 21.2196 36.9877
548 1 3.21073 23.3859 38.2905
1761 1 25.1887 25.5508 25.2472
429 1 19.818 2.00017 31.8753
550 1 9.05797 24.3512 39.9871
552 1 12.6915 23.9854 39.0042
679 1 14.6499 16.5823 48.3348
1973 1 30.2772 26.1347 42.5884
695 1 20.7094 21.3171 48.5059
560 1 32.4018 24.04 39.2131
563 1 6.10458 2.82493 42.5575
565 1 10.434 2.07412 42.0233
567 1 14.9229 2.60635 43.0444
569 1 19.3928 2.74398 43.9473
1753 1 6.70009 26.527 25.5967
423 1 6.9241 2.23957 30.7497
577 1 5.38301 7.16333 42.5922
579 1 10.5954 7.22016 43.1761
510 1 13.1999 9.65156 40.0535
581 1 14.8618 6.58363 42.8953
583 1 19.4163 6.90453 43.8163
585 1 25.8623 6.39816 41.971
587 1 30.3091 6.21165 42.966
576 1 2.76256 9.79116 44.1066
591 1 5.28855 12.5455 40.9807
593 1 11.0046 11.6597 42.3957
595 1 15.4609 11.9219 43.3812
514 1 22.0989 8.96257 40.6492
597 1 20.0794 11.5734 43.9512
599 1 25.6178 11.3358 42.4514
601 1 30.9758 10.5135 41.9139
607 1 11.2051 15.9157 42.8196
528 1 22.2982 13.7127 40.4781
611 1 20.0256 15.9137 43.1721
530 1 28.1898 13.3532 40.2526
696 1 23.4666 23.8863 50.4857
605 1 5.38491 16.3327 41.3028
609 1 15.806 16.5669 43.6582
540 1 17.587 19.4801 40.7716
542 1 22.3143 18.9128 41.3487
613 1 25.872 15.8951 42.2034
544 1 26.8294 19.9953 40.6755
615 1 30.4069 17.0407 41.8469
619 1 5.9285 21.1392 41.3595
621 1 11.5558 22.2206 43.2705
538 1 13.6862 18.7993 40.3274
623 1 15.6733 21.7849 43.4033
625 1 20.3845 21.3757 43.9469
627 1 24.7019 21.5602 44.3592
629 1 30.8908 21.5525 41.9573
620 1 8.22051 23.6797 44.4138
1963 1 5.31308 25.91 41.2776
634 1 7.18861 5.69676 50.7816
1967 1 14.8536 25.7429 43.0699
554 1 17.2377 23.9961 40.6007
1969 1 19.6499 25.9369 43.3992
556 1 21.9275 23.8433 40.1457
1971 1 25.0267 25.3068 41.8589
558 1 27.7642 23.7259 39.3632
562 1 3.14047 4.84637 44.3976
564 1 7.13911 5.27787 45.4582
566 1 12.449 4.87444 46.2424
568 1 17.2147 4.91212 46.3482
570 1 23.2449 4.90856 45.4648
572 1 27.863 4.14524 45.3543
2037 1 15.8515 26.1662 49.7047
616 1 33.8031 18.9887 44.4846
586 1 28.2338 9.05776 44.6158
657 1 31.6407 6.60454 46.9821
661 1 5.35684 11.7396 47.4192
578 1 7.44388 9.88651 44.8054
580 1 12.0479 9.47008 45.535
582 1 16.2563 9.5903 46.1957
584 1 23.7823 8.88479 45.161
588 1 33.9841 8.6452 44.7515
671 1 31.3153 11.5133 47.442
590 1 3.02296 14.0215 44.2596
592 1 7.69313 14.5297 44.3831
594 1 12.8014 14.1566 45.9446
596 1 17.7987 14.0247 45.8762
598 1 24.0287 13.7301 44.8364
683 1 26.4108 16.2789 47.8369
600 1 28.8412 13.6614 44.9099
602 1 32.6871 14.3659 43.8638
604 1 3.1045 19.0735 43.9119
675 1 5.53761 16.4185 46.9295
606 1 8.24403 19.0677 44.3806
608 1 13.096 18.8272 44.9892
610 1 17.6044 18.4754 46.3662
681 1 21.9794 15.3271 47.5621
612 1 23.4432 18.2781 45.5219
614 1 27.9661 19.3965 44.7071
685 1 31.6159 15.8509 47.5874
2039 1 20.1006 25.4047 48.1487
689 1 5.26865 21.1323 47.1992
691 1 9.98409 20.4759 47.3759
697 1 26.2887 21.0314 47.932
699 1 30.944 21.1319 46.8558
618 1 3.75362 23.5776 44.64
547 1 1.1585 21.017 35.2008
622 1 13.298 23.8904 46.53
624 1 17.322 23.3537 46.2686
626 1 22.9713 24.4631 45.8506
628 1 27.6668 24.0803 45.596
630 1 33.6562 23.7476 44.1978
632 1 2.73991 4.82316 50.4109
693 1 14.725 20.6257 49.0015
633 1 5.08497 2.89628 48.0134
672 1 34.1871 13.8605 50.2433
637 1 14.7521 2.46425 48.7817
684 1 29.4473 18.176 50.0716
640 1 23.6988 5.45162 50.3582
639 1 20.9458 2.95193 48.3018
641 1 25.5434 2.1413 48.0759
642 1 28.8216 4.46412 50.0152
644 1 33.363 4.0671 49.581
647 1 4.3021 7.543 47.105
649 1 10.1874 7.55336 48.1619
651 1 14.122 7.59447 49.1471
653 1 20.3982 7.61497 48.1578
655 1 26.4892 6.80532 48.1403
646 1 2.85565 9.654 50.9988
643 1 30.9693 2.01117 47.0759
663 1 9.2962 12.0793 48.3754
665 1 15.0515 12.0977 48.9358
688 1 2.45569 23.3167 48.9899
667 1 19.639 11.6846 49.3303
654 1 23.4649 9.33131 49.7816
669 1 26.2329 11.4968 48.2412
656 1 29.835 8.66985 50.6254
660 1 2.63608 13.9041 49.5524
662 1 7.06117 14.529 50.7003
495 1 11.2371 2.53094 37.4352
668 1 23.4242 13.4242 51.094
670 1 29.3215 14.2646 50.3601
397 1 11.6891 17.0893 25.3489
698 1 28.9293 24.6088 49.3052
674 1 3.03368 19.3454 49.7982
676 1 7.3933 18.774 50.6982
677 1 10.0641 16.4873 47.9115
682 1 23.5583 18.0462 50.116
5978 1 33.9914 20.0724 27.3524
1897 1 15.5928 25.7155 37.2856
1899 1 20.2887 25.5651 37.0174
694 1 17.7778 23.2453 50.9432
635 1 9.44597 2.17363 49.0281
1755 1 11.224 25.8769 25.55
501 1 25.2098 1.9617 38.1641
1893 1 5.76057 26.1887 37.2103
1891 1 1.0997 25.7437 36.3695
6043 1 34.2617 20.7949 31.4855
1757 1 15.866 25.9422 25.2512
395 1 6.89597 17.0295 25.2338
409 1 6.82303 21.8236 25.2871
703 1 5.18629 3.60477 53.4618
2177 1 16.1317 26.1021 57.5269
636 1 11.853 5.42704 51.167
707 1 14.9629 2.58562 53.3488
709 1 21.9592 2.40835 53.5911
711 1 26.4497 2.78071 52.5408
1059 1 23.142 2.08352 76.085
717 1 5.12569 8.1272 53.8367
719 1 9.67969 8.25667 54.0097
721 1 14.6696 6.97168 53.4714
723 1 20.6603 7.67515 52.8295
725 1 26.5425 7.31633 52.8012
727 1 32.0331 6.45267 53.181
731 1 4.00923 12.8014 53.9763
733 1 9.08835 12.2937 54.2502
650 1 11.9202 10.1752 51.5633
737 1 20.6761 11.8613 53.3493
739 1 26.782 11.0696 52.6902
726 1 29.704 9.00475 55.4581
741 1 32.3081 11.2306 52.1449
991 1 26.0325 2.30903 71.2769
735 1 15.4175 12.7913 53.5297
740 1 30.1213 13.6622 54.8919
745 1 3.72126 16.8438 53.0724
747 1 9.80428 16.6894 54.1203
749 1 14.9222 17.3091 53.8676
750 1 18.1541 19.6906 55.4694
751 1 21.5999 16.3457 52.9408
753 1 27.0046 16.1602 52.4895
752 1 24.9545 18.4318 55.362
754 1 28.9499 19.536 54.0467
755 1 32.2935 16.762 52.133
759 1 4.40789 21.4327 52.6938
761 1 8.99334 21.3396 54.0313
763 1 14.4787 22.1899 53.6527
765 1 21.3393 20.8061 53.3158
767 1 25.7648 21.4048 52.4233
769 1 32.1337 20.8492 51.9853
2103 1 4.19044 26.149 52.1136
2105 1 8.35388 25.7898 53.516
926 1 1.18518 10.7381 70.8376
764 1 18.2421 23.7031 55.3056
652 1 17.2186 9.18078 51.49
766 1 23.3314 24.0707 54.509
1089 1 27.5422 13.512 76.6994
768 1 29.3684 24.1699 53.8786
702 1 2.08651 5.44089 56.4514
706 1 12.3044 4.92439 56.1151
777 1 15.0624 3.14257 58.0175
708 1 18.3238 5.06827 55.792
1040 1 8.10933 24.8159 74.1921
710 1 23.5303 5.26387 55.4219
781 1 25.999 2.65185 58.179
712 1 29.0933 4.08003 54.7767
704 1 6.62868 5.53788 56.2435
789 1 9.72109 7.86164 58.5719
791 1 14.5775 7.64861 58.3887
793 1 21.0801 7.68034 57.6636
795 1 26.9171 7.2912 57.5713
797 1 32.4703 6.42032 57.0525
716 1 1.99817 9.90755 55.6262
718 1 6.5208 10.2731 56.7582
720 1 12.4424 10.5296 55.9936
805 1 16.1536 13.0365 57.9351
722 1 17.7046 9.56389 55.8392
807 1 20.8345 12.4982 57.8156
724 1 24.2992 9.69521 55.0706
809 1 27.336 12.0198 56.9351
811 1 32.1582 12.2192 57.9191
1053 1 6.71329 2.44124 76.5904
730 1 0.929284 14.5276 55.6664
732 1 6.21775 15.1241 56.6801
803 1 9.87866 12.9832 58.6088
734 1 12.7634 14.3917 56.0224
736 1 18.1523 15.1865 55.7828
738 1 24.1244 14.2653 55.0095
744 1 1.2456 19.0935 55.7977
746 1 5.76062 19.7686 56.3299
748 1 12.6265 19.4002 56.3293
819 1 15.6306 17.7298 57.8902
821 1 20.9062 16.8481 57.657
823 1 27.811 16.1808 57.1793
825 1 31.7712 16.4949 57.4847
831 1 9.27898 22.0045 58.1831
833 1 15.0236 21.7843 58.0266
835 1 22.1349 21.329 57.6208
837 1 26.8 22.3229 57.1545
839 1 31.6429 22.2668 56.7673
758 1 1.62925 23.5872 54.803
770 1 34.1693 23.9096 54.1029
760 1 5.89553 24.3402 55.9738
783 1 32.3814 2.10468 57.5418
762 1 12.2479 24.5304 55.6291
692 1 12.0616 23.9157 51.4715
1097 1 10.3552 17.4527 76.5572
773 1 4.55339 2.45973 59.1751
772 1 2.04755 4.66874 61.0593
775 1 10.7732 2.26723 58.2313
776 1 12.6179 4.91236 60.5834
778 1 18.4147 5.74014 60.0739
780 1 23.7191 5.62175 59.9433
782 1 29.67 4.62563 60.2667
1067 1 5.34528 8.18442 76.8391
853 1 32.4419 2.34024 62.3268
787 1 3.65207 8.53207 59.9236
774 1 6.40827 5.9799 61.0323
678 1 11.6632 19.1026 51.4806
788 1 6.84566 10.7385 60.4486
790 1 13.3487 10.6663 60.5304
792 1 17.8937 10.2421 60.6152
794 1 23.7957 10.7875 59.5712
796 1 29.8525 9.13199 59.5172
2247 1 15.7634 26.3894 62.2983
801 1 3.38852 13.0253 58.5973
802 1 6.62723 15.3375 60.8312
804 1 12.8326 15.3995 60.4622
806 1 18.8864 15.3821 60.6019
808 1 24.6799 14.6715 59.5486
810 1 29.9182 13.6983 60.3725
815 1 3.16683 17.7496 59.2425
817 1 9.65364 18.2152 58.5368
889 1 16.0944 17.3206 62.5794
824 1 29.2271 19.6584 59.9337
895 1 32.5944 16.9604 61.9206
829 1 3.70093 22.4191 58.7079
816 1 6.94151 19.7604 60.8652
818 1 12.4942 19.6587 60.8763
903 1 15.8487 21.6423 62.7205
820 1 19.4007 19.1073 60.673
905 1 22.2097 21.7872 61.5221
822 1 24.6889 19.333 59.9413
909 1 32.2024 22.4185 61.1691
830 1 6.43414 24.5799 60.4776
2181 1 27.0573 26.4916 57.3651
832 1 12.4588 24.3208 60.7561
834 1 18.7927 23.9294 59.9024
1048 1 30.6412 25.5326 74.2804
836 1 23.5184 24.7596 59.4458
838 1 29.3462 24.3064 59.4176
800 1 1.1008 15.4278 61.5219
843 1 4.98161 2.92759 63.0094
845 1 9.78162 3.40558 62.7266
847 1 15.7422 2.89877 62.7279
848 1 18.2953 4.91406 64.8256
1103 1 28.3923 17.5526 76.0311
851 1 27.3751 2.63752 62.6814
852 1 30.9196 4.93945 64.8363
779 1 21.2754 2.48595 58.1876
857 1 3.48691 8.34901 63.7279
844 1 7.3702 6.0455 65.6131
859 1 9.71723 8.05087 62.9638
846 1 12.1499 5.93688 65.2086
861 1 15.045 7.2871 62.9563
863 1 21.439 7.63778 62.4312
850 1 24.518 4.93714 64.3352
865 1 27.5416 7.26924 62.2563
867 1 32.4441 7.10588 61.7268
858 1 6.92604 10.7486 65.754
875 1 15.7152 13.1315 63.4918
860 1 13.2137 10.437 65.2095
862 1 18.9123 9.82249 64.3309
864 1 24.7041 9.58006 65.0969
866 1 29.8413 9.63892 65.0917
881 1 33.1118 12.0438 62.3844
871 1 3.90957 13.0341 64.0789
872 1 7.47471 15.3843 65.8009
873 1 9.74466 12.5702 63.0162
874 1 12.618 15.1112 64.6746
877 1 21.791 12.2318 62.3552
876 1 19.3019 15.309 65.2697
879 1 26.5524 12.0473 62.8488
878 1 24.0737 15.2125 65.182
880 1 29.9761 14.3338 64.8003
885 1 4.07989 17.553 63.6272
887 1 9.19822 17.1287 63.0342
891 1 22.372 16.87 62.0671
893 1 26.9938 16.7393 62.9725
899 1 4.04479 22.3304 63.4119
886 1 7.12611 19.4762 65.3386
901 1 9.69662 22.3346 62.7696
888 1 14.1527 20.2961 65.8598
890 1 19.3864 19.6918 65.3102
907 1 26.6827 22.5002 62.5131
892 1 24.3062 19.7587 65.3768
894 1 29.9443 19.8995 64.5763
1038 1 2.31471 24.2076 75.423
666 1 17.7149 14.5086 51.1599
900 1 7.15309 24.3201 64.88
902 1 13.6459 24.9289 65.2229
904 1 19.3765 24.1735 64.4917
906 1 23.2133 24.1238 64.5203
908 1 29.3986 24.5853 64.3015
913 1 5.34075 2.55078 67.7843
915 1 10.0801 3.12894 68.1149
917 1 14.6906 2.36218 66.4276
918 1 19.5453 4.37 69.416
919 1 21.989 2.73465 66.8014
1034 1 30.3548 20.5996 74.3719
920 1 24.2555 5.53366 69.0326
922 1 29.9619 3.71691 69.3839
842 1 2.67351 4.93942 65.5204
927 1 3.89719 8.2447 67.7692
929 1 10.6017 8.77088 67.5474
914 1 7.60879 6.21497 69.8313
931 1 16.8006 7.77156 67.3194
933 1 20.7627 7.83195 67.0035
935 1 27.2691 7.34623 66.8935
937 1 32.5891 8.20888 67.7941
664 1 11.7356 14.7901 51.3414
947 1 21.859 12.4676 67.2688
934 1 24.316 9.45532 69.6478
951 1 33.1517 12.0875 67.1742
870 1 1.07068 15.3141 66.3724
941 1 3.96926 12.8393 68.3437
943 1 10.6038 13.2487 67.2666
944 1 14.0272 14.6523 69.2865
945 1 17.4065 12.5637 67.3448
948 1 23.8592 14.8481 69.9499
949 1 26.936 12.5016 67.5919
950 1 30.0016 14.7234 69.6014
955 1 4.57195 17.7123 68.0199
957 1 10.9941 17.5921 67.5437
959 1 16.2114 17.3072 66.9711
961 1 21.9635 17.6852 68.2945
963 1 26.8624 17.2277 67.1647
965 1 32.8749 16.9241 66.9211
884 1 0.955801 20.1247 65.9354
969 1 4.4713 22.4731 68.1232
971 1 10.2752 22.3563 67.4692
958 1 13.656 19.8076 69.6587
973 1 17.0501 22.6959 67.5504
975 1 21.8393 22.455 67.9792
962 1 25.0073 20.4132 70.0386
977 1 26.6281 22.5955 67.0601
964 1 29.8729 19.8074 68.9034
979 1 32.7312 22.2586 66.6566
970 1 7.46115 24.7015 69.6478
972 1 13.662 24.5784 69.9734
978 1 29.172 25.3651 68.7041
912 1 2.95269 4.98828 70.8676
983 1 6.67807 2.44039 72.336
985 1 11.0006 3.27878 71.8493
987 1 15.7276 2.88245 71.7691
1113 1 16.1586 23.3125 76.1706
997 1 4.35214 8.29022 72.542
999 1 11.0755 8.3725 72.1334
916 1 13.5621 5.70737 69.7144
1001 1 17.3804 7.3714 72.013
1003 1 21.0664 7.63814 71.5943
1005 1 27.6673 6.12832 71.8919
936 1 28.1317 9.52771 69.916
1007 1 31.8808 7.43495 71.6732
1069 1 11.5606 8.04482 76.6707
928 1 7.61724 10.3736 69.7559
930 1 14.4656 10.0132 70.093
932 1 18.9324 10.6369 70.4381
1017 1 22.2817 12.0693 71.8028
1019 1 26.5503 13.2486 72.142
1021 1 33.1857 11.9556 71.7668
940 1 1.07069 15.6692 70.2635
1011 1 4.68461 12.6298 72.5503
942 1 7.52406 15.1718 69.8253
1013 1 10.7721 13.1155 71.7624
1015 1 16.1728 13.3069 72.4933
946 1 19.094 15.1072 69.9788
1025 1 4.79442 17.3452 72.5556
1027 1 11.0053 17.3222 71.7869
1029 1 17.138 17.9994 72.1691
1031 1 21.7483 18.8963 71.9803
1033 1 28.2198 17.3785 71.767
1035 1 32.6696 17.9819 71.4446
954 1 1.75265 20.0192 70.5341
1039 1 4.64994 22.1407 72.8514
956 1 7.69702 19.9261 70.0658
1041 1 10.3539 22.5789 71.6145
960 1 19.2325 19.9754 69.5257
1045 1 21.7392 23.0496 71.9782
1047 1 27.7661 23.0092 71.6203
1049 1 32.7558 22.7607 71.2513
968 1 1.52661 24.5428 70.7137
974 1 18.8215 25.4085 69.6723
1043 1 16.3027 22.7236 72.0728
976 1 24.3606 25.1799 69.1248
982 1 3.52359 4.40187 74.9868
1055 1 12.1234 2.81686 76.767
988 1 19.3443 4.37764 74.1533
1101 1 21.7949 18.4657 76.1717
990 1 23.8931 4.93143 73.8198
992 1 30.1277 3.97629 74.0236
984 1 9.27949 5.8516 74.3263
1117 1 26.9305 23.0069 76.5879
986 1 13.9065 5.63383 74.778
1071 1 17.5344 6.61099 76.7278
1073 1 21.8935 7.74368 76.1174
1075 1 28.0872 6.43038 76.1971
1077 1 32.781 7.2397 76.2095
996 1 1.73652 9.83884 75.4248
998 1 8.13151 10.0999 74.2703
1000 1 14.4225 9.90173 74.2389
1002 1 18.9399 9.83432 75.0982
1087 1 22.9324 12.317 76.2376
1004 1 25.7986 9.93086 74.0714
1006 1 29.701 10.2475 74.1855
1010 1 2.38311 14.6854 74.8809
849 1 20.9794 2.60596 62.2572
1032 1 25.7807 20.0159 74.6023
1012 1 8.31042 14.9293 74.5354
1014 1 14.2358 16.0067 74.7898
705 1 9.79935 3.0998 53.6578
1016 1 19.9744 15.2382 74.3875
1018 1 23.833 16.1475 73.8248
1046 1 25.2113 25.3489 73.8982
1020 1 30.2067 14.5566 73.247
1091 1 32.6757 12.7045 76.4408
2109 1 20.0011 25.9664 52.7533
1083 1 11.5487 12.6146 76.3602
1099 1 17.2105 18.0627 76.4271
1061 1 27.2847 2.56356 76.0594
1042 1 13.0557 25.0813 74.3223
1105 1 32.9375 17.4637 76.5822