ITEM: TIMESTEP
11000
ITEM: NUMBER OF ATOMS
16000
ITEM: BOX BOUNDS pp pp pp
9.0926188596401403e-01 1.0129073811403583e+02
1.2159873146949636e+00 1.0098401268530588e+02
2.5048001471758141e-01 1.0194951998528276e+02
ITEM: ATOMS id type x y z
2 1 5.03798 3.72693 1.54673
4 1 8.9006 3.0716 2.79848
6 1 14.9159 3.62133 1.95396
8 1 20.7455 3.12891 3.37198
10 1 25.1434 3.84711 1.75411
12 1 29.362 2.75366 1.70418
14 1 33.3424 2.72216 1.46682
91 1 17.7005 5.55882 4.15568
93 1 22.1689 6.60932 4.15205
16 1 4.57723 8.76829 1.67037
18 1 9.32297 9.32024 2.47215
20 1 15.2091 8.71202 1.80331
22 1 19.5803 9.13509 1.39078
107 1 22.1635 11.4658 3.3456
24 1 24.4947 8.27771 1.32566
109 1 27.3274 11.0811 3.90489
26 1 29.7409 9.45226 1.30526
30 1 5.51088 13.3864 1.54817
32 1 10.2099 13.4044 1.6107
34 1 14.5268 13.4807 1.26455
36 1 19.0108 14.1758 0.972417
121 1 21.9647 16.3156 3.01143
38 1 24.7312 14.2615 1.65169
40 1 29.4046 14.1707 1.87646
61 1 11.4342 21.2297 0.801746
44 1 4.27027 17.8398 0.914026
46 1 8.57728 18.9146 2.30231
141 1 2.00093 2.33374 10.0312
48 1 14.2963 19.1849 2.34496
50 1 19.2133 18.8789 1.36381
52 1 24.4571 18.9626 1.06276
54 1 29.5444 18.9095 2.05824
58 1 2.86393 23.7891 2.06968
183 1 1.07003 16.0056 9.95762
60 1 7.35526 22.8334 2.48025
62 1 13.81 23.7731 3.16998
155 1 1.32805 7.02118 10.03
64 1 19.4077 23.3886 1.92067
66 1 24.576 24.3907 1.97705
68 1 29.6457 23.1324 2.39828
210 1 33.1922 24.3387 12.8628
113 1 2.39405 14.9808 3.90401
1683 1 7.27604 25.3064 19.7026
78 1 19.609 3.22384 7.12507
80 1 23.9206 3.29615 6.99378
82 1 28.5587 3.80392 6.92799
85 1 2.37677 6.58819 3.99107
87 1 6.75618 6.31987 5.20082
89 1 12.3286 6.45428 4.68845
76 1 15.0936 4.19443 6.5904
95 1 27.4218 6.39019 3.623
97 1 31.1564 5.39655 4.19414
99 1 1.94385 11.2022 4.15271
101 1 6.57893 11.6948 4.50018
103 1 12.8684 10.9466 4.65408
92 1 19.9662 9.63094 6.04093
105 1 16.7945 11.415 4.03224
94 1 24.5185 8.86927 6.09937
96 1 28.9926 8.37558 6.87448
111 1 31.8517 11.4657 4.92258
98 1 33.6455 8.24416 6.75972
100 1 3.95141 12.9593 7.76755
104 1 14.7341 13.494 7.29893
106 1 19.5554 14.2006 6.65352
108 1 24.3102 13.7256 6.30616
110 1 28.7139 13.8472 6.25121
114 1 3.94397 17.7953 7.28214
115 1 5.8775 15.6275 4.48417
117 1 12.473 15.8646 4.72097
118 1 14.5515 18.9479 7.13984
119 1 16.5723 16.1263 4.49083
120 1 20.1107 18.8736 6.24127
123 1 26.5403 17.0438 3.61144
122 1 24.5389 17.7546 6.70832
124 1 29.0595 18.5612 6.88468
125 1 31.4319 16.4044 4.47308
126 1 33.7032 18.5731 7.52211
127 1 1.9566 20.583 4.14607
129 1 5.86588 20.2462 4.86017
131 1 11.5204 20.3033 4.82938
133 1 17.5264 21.3705 4.66103
135 1 22.341 21.7892 4.15033
137 1 26.7344 21.096 4.01612
139 1 32.0298 21.0556 4.43593
128 1 3.42396 23.5342 7.14233
353 1 6.98649 1.64472 25.1851
132 1 14.272 23.6053 7.03562
1477 1 17.5238 25.8155 4.25256
134 1 19.9759 23.5532 6.785
136 1 24.9997 23.9039 7.32478
138 1 29.5185 22.9929 7.17609
1611 1 1.48914 25.3261 14.782
72 1 4.11162 4.18713 7.63345
74 1 9.19224 3.8947 6.7817
399 1 16.4374 16.2613 25.274
151 1 26.793 1.18504 10.0635
84 1 33.184 4.24717 7.92149
1547 1 17.0319 25.8317 8.44352
86 1 4.71372 8.85367 7.35352
157 1 6.60171 6.47162 9.69719
159 1 12.137 6.88696 8.81783
161 1 17.5477 6.59219 9.57922
163 1 22.1002 6.65829 8.71233
165 1 26.6416 6.72221 9.25666
167 1 30.7597 6.75936 10.0094
169 1 1.24363 11.3784 10.7073
171 1 7.18237 11.8468 9.63606
88 1 9.51754 9.44689 7.46727
173 1 11.8349 11.9641 9.82355
90 1 15.5072 8.82658 6.73651
175 1 17.7861 11.3871 9.56008
177 1 22.1662 11.5343 8.59346
179 1 26.7031 11.5492 9.43401
181 1 31.2201 11.413 9.28805
102 1 9.65475 13.8242 6.42635
291 1 25.4661 1.30087 21.1075
185 1 7.23756 15.6383 10.0468
116 1 9.07416 18.2497 6.84701
187 1 11.9386 15.8471 9.49413
189 1 17.1856 16.2361 9.88844
191 1 21.7397 15.7107 9.46865
193 1 27.0128 15.4655 9.68333
195 1 30.9254 15.3574 9.26732
197 1 1.53623 20.5026 9.55572
199 1 6.19017 21.4943 9.3657
201 1 12.1454 21.1748 8.95734
203 1 17.4935 20.739 9.14726
205 1 22.1467 20.9166 9.0409
207 1 26.7251 21.0891 9.51114
209 1 31.2578 20.8951 10.4503
130 1 8.36459 22.8569 6.91954
1545 1 11.232 25.6118 9.20982
142 1 3.74206 4.25072 12.7215
144 1 9.92208 3.62184 11.4917
146 1 14.3236 3.50199 11.3334
217 1 16.9376 1.66123 13.6609
148 1 19.7924 3.94031 11.7855
56 1 34.2703 18.5165 2.83943
150 1 24.0367 3.6838 11.5615
152 1 29.0029 3.87449 13.1595
154 1 33.0677 3.70147 13.4946
225 1 1.7568 6.88412 15.4943
227 1 7.22586 5.86346 13.529
229 1 12.3799 6.36294 13.3552
231 1 16.9246 6.48286 14.1274
156 1 4.59542 8.96996 12.6156
158 1 9.23824 9.21126 11.5677
160 1 15.0515 8.883 11.3715
162 1 19.4574 8.66757 12.1714
164 1 24.6502 8.44238 12.0243
166 1 28.9376 9.14129 12.8599
168 1 33.1287 8.86476 12.6363
170 1 3.95383 13.6105 12.4917
172 1 10.1055 14.233 12.4249
174 1 15.1772 14.1588 12.0885
176 1 19.2291 13.4588 12.5541
178 1 23.7918 13.8347 12.3098
180 1 28.1688 13.804 13.2363
182 1 32.9113 13.4004 12.6056
184 1 4.26624 18.3165 11.9828
253 1 2.26353 15.5136 15.0278
255 1 6.93312 16.8207 14.3435
257 1 12.4288 17.3562 13.8451
188 1 14.9772 18.7484 11.7703
190 1 19.7539 18.888 12.4497
192 1 23.8588 19.1666 12.391
194 1 28.4586 18.3321 11.9453
196 1 33.1436 17.9561 12.2463
267 1 2.13275 21.4257 14.7265
269 1 6.42832 21.7479 14.0338
186 1 9.05737 18.7083 11.7001
271 1 12.2706 21.2509 13.8247
275 1 21.6528 20.9388 15.1359
279 1 30.7662 20.5431 14.1748
198 1 3.99099 23.9161 11.7187
1613 1 6.57996 25.7988 13.6753
200 1 9.55898 23.4532 11.8461
202 1 14.4319 23.3265 11.5337
204 1 19.2997 23.2451 11.8262
206 1 23.8744 23.5264 12.3452
208 1 28.595 23.7485 12.9787
1755 1 11.4811 25.2071 24.3838
211 1 1.29143 1.29839 15.4616
212 1 4.03938 4.26163 17.1299
214 1 9.49246 4.00905 16.3545
216 1 14.6991 4.19905 16.7133
218 1 19.1823 3.79669 17.1487
220 1 23.7626 3.60219 17.5088
222 1 27.7609 3.07744 17.4556
224 1 32.8102 3.705 17.876
228 1 9.92338 8.55351 16.3509
233 1 21.5499 6.30681 14.4238
235 1 26.5155 6.53072 15.8447
237 1 30.573 7.27366 15.6573
239 1 2.54093 11.4534 15.318
226 1 5.39837 8.84359 17.2591
241 1 7.90933 11.5751 14.2873
230 1 14.8611 8.55968 16.5844
243 1 12.7101 11.1506 14.4534
232 1 19.1759 7.95124 17.7733
245 1 17.3627 11.2555 15.2091
247 1 21.828 10.7609 14.979
234 1 24.1703 9.14035 18.6349
251 1 30.777 11.6807 15.7255
240 1 5.5577 13.6087 16.7485
242 1 10.0762 14.5506 16.828
244 1 14.6023 14.4776 17.0394
246 1 19.3434 13.9957 17.4671
249 1 26.038 11.2718 15.551
248 1 23.8485 13.3301 18.9944
250 1 28.4373 14.5227 17.9821
254 1 4.4273 18.4199 17.6397
256 1 10.1293 18.4887 16.7864
258 1 14.8267 18.4207 17.3829
259 1 17.2562 16.6692 15.0411
260 1 19.372 18.7557 17.2226
261 1 21.9014 16.4164 15.7254
263 1 26.1304 16.3617 15.4102
262 1 24.0414 18.492 18.001
264 1 28.6615 19.1716 18.2372
265 1 30.5078 16.1216 15.3179
273 1 16.9999 21.0861 14.0789
277 1 26.2013 21.0457 14.6119
268 1 4.77811 22.9024 17.3478
1691 1 26.0863 25.4279 21.0854
270 1 9.92432 22.9405 16.585
272 1 14.1788 22.4549 17.8579
274 1 18.5884 23.267 17.8432
346 1 23.7824 23.5458 24.0522
140 1 34.278 23.4412 7.92481
276 1 24.2377 23.1945 17.5762
278 1 28.5491 23.9029 18.2797
280 1 32.7029 23.4376 17.6506
28 1 34.3573 9.15326 1.99586
281 1 1.53005 1.64569 20.1306
283 1 7.19932 2.4516 20.0339
285 1 11.9654 1.91363 19.6397
287 1 16.0815 1.85499 19.8486
289 1 20.7125 1.78853 20.7139
1615 1 12.371 25.4359 15.0702
293 1 30.1132 1.63674 21.0019
295 1 2.4041 6.32631 19.9172
297 1 7.17563 6.31663 19.5755
299 1 11.8876 6.22926 19.3362
301 1 16.7577 6.35551 20.284
303 1 21.4526 6.27473 21.0358
305 1 25.8828 5.3383 20.1767
307 1 30.138 6.23043 20.0638
350 1 33.7965 24.3787 24.1364
309 1 2.48824 11.0824 19.0492
311 1 8.23628 12.0937 19.0481
313 1 12.2358 11.1582 19.2344
315 1 17.1235 11.0255 19.901
317 1 20.8009 10.6485 21.2045
236 1 28.0132 9.52247 18.5682
321 1 30.8279 11.473 20.6135
238 1 32.772 8.79954 18.8524
319 1 26.8011 11.749 21.1013
252 1 33.1599 14.2612 19.0373
323 1 2.27097 14.8669 19.6817
325 1 7.90314 16.0149 19.7595
327 1 12.0703 16.3371 20.5591
329 1 17.2771 16.0864 20.54
331 1 21.8459 16.4992 20.6589
333 1 26.4175 16.518 21.6233
266 1 33.151 18.7052 17.9967
335 1 30.4366 16.948 21.0803
337 1 1.60744 20.8998 19.349
339 1 7.01011 20.7527 19.5807
326 1 8.99732 18.2941 22.7588
341 1 11.3784 20.9508 20.541
343 1 17.8662 20.3972 20.5618
345 1 21.9535 21.0776 20.3404
347 1 26.2701 20.958 20.9667
349 1 31.1773 21.7881 21.316
1681 1 1.48254 25.4432 19.3977
407 1 2.10278 20.4934 25.2898
1685 1 12.0212 25.3352 20.0763
342 1 14.8829 22.5444 22.371
1687 1 16.7636 25.2759 20.4071
1689 1 21.569 25.129 20.8508
1543 1 6.66541 25.7134 8.9242
344 1 19.0665 23.2046 24.0963
282 1 4.88861 3.42263 22.7252
284 1 9.60797 4.27564 22.579
286 1 13.9276 4.24223 23.0488
288 1 18.678 4.13827 23.0974
367 1 7.37052 6.20351 25.5385
290 1 23.0065 3.84132 23.3401
292 1 28.1118 3.1792 23.9335
294 1 32.2254 4.0673 23.7095
365 1 2.95931 6.84872 24.5282
351 1 2.31005 1.62131 24.8789
379 1 2.75426 10.7731 25.4359
296 1 5.93071 9.26452 21.7529
298 1 9.62654 9.06809 22.4655
1475 1 11.0692 25.7866 4.34109
300 1 13.8563 9.1202 22.5702
302 1 18.3261 8.42417 23.4546
304 1 24.211 8.3496 23.308
306 1 28.8723 8.42797 23.4389
308 1 32.8017 8.31748 23.5843
310 1 4.97325 13.2369 21.9112
312 1 10.028 13.7264 22.6801
314 1 14.391 13.1824 22.5065
316 1 18.9826 13.0805 23.5035
318 1 23.7307 14.0495 23.6722
320 1 29.1457 13.2898 23.9123
322 1 32.89 13.8596 23.6831
393 1 2.42657 15.6085 25.1505
324 1 4.31832 18.011 22.0493
395 1 6.27378 15.0825 25.1695
397 1 11.8284 16.1511 25.1812
328 1 14.7088 18.742 21.9751
334 1 28.1846 19.8084 24.0951
1757 1 15.8195 25.1929 25.1489
348 1 28.3954 24.4766 23.9809
411 1 11.8926 20.3835 25.1847
143 1 6.63078 1.62323 8.82387
330 1 19.7185 18.6307 23.6758
332 1 23.648 19.0141 23.9335
336 1 32.7435 19.8269 24.0671
338 1 4.12029 23.5472 22.1455
1751 1 1.4458 25.684 24.8858
340 1 8.87558 23.053 22.6318
1483 1 31.6517 25.7023 4.78733
1619 1 21.2618 26.0169 15.0349
1473 1 5.48074 25.7181 4.58666
381 1 7.42911 10.7437 25.0801
1621 1 25.9528 25.8437 14.7544
1617 1 16.8981 26.017 14.5615
1405 1 10.784 25.773 0.361538
1693 1 30.6263 26.0179 21.4603
1553 1 31.1731 26.1441 10.1022
71 1 2.13735 1.19911 4.03046
145 1 12.0919 1.26875 8.9304
389 1 25.6684 11.2374 25.5766
1753 1 6.53357 25.8978 25.4969
352 1 4.52223 3.69256 27.3879
354 1 9.4617 3.52394 27.2651
356 1 13.9694 3.48798 27.5586
358 1 18.8772 3.58718 27.6968
360 1 23.5961 3.32004 28.4118
362 1 27.4731 2.70229 28.2278
364 1 32.5403 2.78433 28.8245
637 1 15.3624 1.62669 47.7644
369 1 12.0285 6.35476 25.8804
429 1 20.8407 1.30015 30.4515
375 1 26.1462 6.04314 26.6263
377 1 30.0183 6.39202 26.9971
366 1 4.48892 8.44971 27.991
425 1 11.7297 1.28349 30.7132
368 1 9.21196 8.449 28.6701
370 1 14.1083 8.68128 29.1715
385 1 15.6962 11.0623 26.1608
372 1 18.6533 9.62173 28.0907
574 1 34.2492 3.94879 43.4942
374 1 23.991 8.60447 28.6693
2033 1 5.65735 25.9143 47.3388
376 1 28.414 8.91736 29.8603
391 1 30.5255 10.681 26.1527
378 1 32.3759 8.78397 29.5908
380 1 4.37365 12.9396 28.1076
382 1 9.4894 13.5743 28.4052
384 1 14.181 13.9356 28.7758
386 1 18.8361 13.7039 28.3797
388 1 23.6627 13.8149 28.91
392 1 32.5332 13.1239 28.4501
394 1 4.62452 18.3965 28.2533
396 1 9.03198 18.0204 27.5647
567 1 15.6851 2.2569 43.1966
401 1 21.3805 15.8423 26.3157
403 1 26.188 15.8405 26.0433
405 1 30.2981 16.3678 26.1707
398 1 14.1001 18.143 28.7488
400 1 18.7573 18.376 29.2279
415 1 21.3505 21.2443 26.6245
417 1 25.8763 21.4615 26.7137
419 1 29.9268 21.4978 27.3608
408 1 3.94435 24.0322 28.2196
410 1 9.22993 22.9231 27.788
412 1 13.4441 23.421 28.3823
414 1 18.129 23.6878 28.7231
690 1 7.83217 23.0406 49.3284
418 1 27.9993 24.1938 29.594
688 1 3.11174 23.3164 49.7942
422 1 4.35988 3.8593 33.1302
698 1 28.643 24.1319 49.0577
424 1 9.09928 4.23206 33.5546
696 1 24.3127 23.8392 49.2639
435 1 1.59258 6.19624 29.9641
437 1 7.3147 5.10074 29.9285
439 1 11.7309 6.06844 30.6779
441 1 16.5379 6.33414 30.5373
443 1 20.7684 6.10348 31.1361
445 1 25.5304 5.93727 31.0287
447 1 30.2427 4.95062 31.2594
446 1 28.2505 8.33787 33.9159
449 1 1.76925 10.7857 29.8748
451 1 7.11396 10.86 31.0925
453 1 11.862 11.2182 31.5654
455 1 16.1854 11.1678 31.4239
457 1 21.4684 10.7774 31.3672
459 1 25.8605 11.6894 31.6367
461 1 30.496 11.9512 32.0272
390 1 28.2919 13.5574 29.0195
463 1 2.90505 16.1298 30.9317
465 1 7.04735 15.3812 31.0398
467 1 11.7663 16.0131 31.6845
469 1 16.3261 15.7416 31.4839
471 1 21.2018 15.9087 31.0516
473 1 25.9113 16.1371 32.3265
475 1 31.0299 15.6636 32.1649
406 1 32.4265 19.0233 29.3736
477 1 2.41154 20.9681 30.4742
479 1 6.97381 21.0445 30.5267
481 1 11.5627 21.0111 30.2986
483 1 16.2425 20.9358 30.5378
402 1 23.9819 18.432 29.4198
485 1 20.9694 21.3946 31.1756
487 1 25.609 20.6897 31.5208
404 1 28.4393 18.3126 29.3693
489 1 30.2326 21.0526 32.5587
1821 1 1.52271 25.0919 31.2421
1823 1 7.54603 25.6409 30.8852
371 1 15.7759 6.62324 25.8842
639 1 20.716 1.24819 47.9605
491 1 2.08099 1.6703 36.4908
416 1 23.8238 23.6999 29.3736
420 1 32.8418 23.6185 28.7499
643 1 32.656 2.02864 46.3104
493 1 6.60782 1.34243 35.8908
495 1 11.3244 1.56823 36.8791
497 1 16.1536 1.4366 37.1346
426 1 13.7207 3.67212 34.1375
428 1 18.47 3.84297 33.9491
430 1 23.2587 3.74996 34.3442
432 1 27.9883 3.92454 34.2199
434 1 32.714 4.1115 34.6123
436 1 3.7832 8.42961 33.4601
505 1 1.42967 6.09352 36.0975
507 1 6.05279 5.86774 36.5874
438 1 8.99351 8.39426 33.77
509 1 11.8141 5.87256 36.4674
440 1 13.7972 8.132 34.1498
442 1 18.5056 8.50928 34.3147
444 1 23.1185 8.50875 34.1425
448 1 32.2519 7.99592 34.3133
519 1 1.99623 11.4833 36.1682
521 1 6.62919 10.5174 36.4188
523 1 11.1445 11.2322 36.6613
525 1 15.8723 10.9239 37.2057
527 1 20.4854 10.9361 36.8139
529 1 25.4048 11.2866 36.0568
531 1 31.0262 11.2066 36.1508
450 1 4.13827 13.035 33.3504
452 1 8.24093 13.3778 34.044
454 1 14.0037 12.887 34.3142
456 1 18.6024 13.0333 33.8694
458 1 23.2953 13.7167 33.7512
460 1 27.8742 13.4605 34.7408
462 1 33.6924 13.5655 33.9137
533 1 1.95298 16.1609 35.9882
535 1 7.52913 16.3851 36.613
466 1 9.48376 19.5079 33.3007
537 1 11.8324 16.3776 36.0638
470 1 18.206 18.5809 33.664
539 1 16.4721 16.3902 36.3227
541 1 20.731 15.9032 36.6393
543 1 24.801 15.935 36.9619
474 1 27.4482 18.2041 35.1383
464 1 4.91651 18.3984 33.3495
547 1 1.56504 20.6134 36.073
549 1 6.54463 21.2753 36.5417
468 1 14.2397 19.266 33.5515
555 1 20.4832 20.4346 36.826
472 1 22.8009 19.0526 33.9871
476 1 32.9151 18.4299 34.0561
478 1 4.94144 23.0631 33.741
1891 1 1.44364 25.35 36.055
569 1 20.3898 2.25386 42.751
480 1 9.36029 23.6043 33.5132
482 1 13.3992 23.8113 32.9904
484 1 17.9033 23.1286 34.3133
486 1 22.6586 24.0789 34.7776
488 1 26.7006 23.0778 34.9608
490 1 33.2942 23.6177 34.997
492 1 4.6206 3.7502 39.4631
494 1 8.69382 3.78574 39.3477
498 1 18.4473 4.26989 40.1993
500 1 22.7921 4.1803 40.1038
659 1 1.27764 11.2864 46.4602
694 1 17.7441 23.1956 49.3706
517 1 29.714 5.78548 37.1315
504 1 32.5799 3.70521 40.0815
511 1 16.094 5.86034 37.4267
513 1 20.6307 6.21409 36.958
514 1 23.6948 8.6855 39.4506
515 1 25.8294 5.08067 37.529
516 1 28.148 9.3689 38.8017
518 1 32.8634 8.29849 39.0186
506 1 4.53652 9.491 39.4829
508 1 9.02773 8.52472 38.8733
510 1 13.1012 8.95317 38.9866
512 1 18.4702 9.08376 40.0082
520 1 4.06081 13.9005 38.4127
522 1 8.62235 13.05 38.7811
524 1 14.034 13.7692 39.384
526 1 18.6281 13.4725 39.2965
528 1 23.3825 12.4082 39.4741
530 1 28.0557 13.3664 39.348
532 1 33.7323 13.0156 39.0154
534 1 4.24647 18.6034 38.1039
536 1 9.28117 18.5961 39.4547
538 1 13.2892 18.7943 39.859
540 1 18.1235 19.162 39.6675
542 1 22.7178 18.3649 40.024
544 1 28.0316 18.0713 39.7437
545 1 30.8875 15.5015 37.0524
546 1 32.7935 18.5582 39.0417
617 1 1.56273 21.0549 40.5872
551 1 11.132 21.0275 36.343
553 1 15.9036 21.0365 37.0139
554 1 18.2614 23.1204 40.1749
557 1 25.133 20.7909 37.9231
559 1 29.9266 21.1686 36.5286
571 1 25.5392 1.59856 42.9658
548 1 3.80732 23.31 38.482
550 1 8.96014 24.279 38.8963
552 1 13.6096 24.1639 39.742
556 1 22.7473 23.7568 38.7559
2035 1 9.91806 25.898 46.4043
558 1 27.2988 24.4883 39.4153
560 1 33.5206 23.1899 38.704
1829 1 20.416 25.4073 31.9679
563 1 5.87236 1.98287 42.8678
496 1 13.3751 3.72762 40.3729
1973 1 31.5373 25.617 41.2279
561 1 1.59872 1.75732 40.8734
502 1 28.254 2.60006 40.2375
575 1 2.26145 6.56681 40.8079
577 1 6.53293 6.74448 42.2905
579 1 11.1506 6.85179 41.6041
581 1 16.0956 6.7904 42.0557
583 1 20.9252 6.96833 43.3495
585 1 25.8527 6.12289 42.9457
587 1 30.0658 6.28238 41.1855
589 1 1.4654 11.214 40.9328
591 1 6.99646 11.1792 42.2476
593 1 10.8113 11.6025 41.8205
595 1 15.5469 11.4504 41.9559
597 1 20.9557 11.3968 42.5062
599 1 26.1498 10.5911 42.8323
601 1 30.666 10.6642 41.9425
605 1 6.08493 15.5666 41.0219
607 1 10.7188 15.6821 42.0348
600 1 28.5077 13.1153 44.0453
615 1 31.0017 15.2531 41.8203
602 1 33.5754 12.996 43.7797
603 1 1.50043 15.9574 40.6753
604 1 3.67354 19.1216 43.3941
609 1 16.8236 15.997 41.5285
611 1 20.7337 16.0181 42.3931
613 1 25.2471 14.7019 41.7769
387 1 21.5045 11.0979 25.7486
618 1 3.92406 23.7658 43.7406
619 1 6.13662 21.2005 41.07
621 1 10.9191 20.9653 41.8606
623 1 15.4878 20.7505 42.6195
625 1 21.5737 20.7487 42.7247
627 1 25.7775 21.6397 42.0264
629 1 30.4286 20.9628 41.1475
423 1 7.39292 1.61461 30.7413
1833 1 29.7488 25.7743 32.669
616 1 33.8199 18.7461 43.3517
684 1 29.0803 19.2091 49.6131
630 1 33.2603 23.2046 43.8331
562 1 2.69624 4.17654 43.7645
680 1 18.3111 19.3893 49.5975
564 1 9.09579 4.40501 43.8152
635 1 11.1651 1.63198 47.8379
566 1 13.6491 4.9799 45.0675
568 1 18.2304 4.67515 45.7813
570 1 22.9547 4.1303 44.9747
499 1 20.5552 1.44922 37.1183
572 1 28.7899 4.34927 44.9798
1759 1 21.4504 26.0787 26.1814
1903 1 30.437 25.0688 36.9804
647 1 5.86528 6.98565 47.478
649 1 10.9635 6.61436 47.6776
655 1 25.8077 6.52838 47.4747
586 1 28.1277 8.40832 45.1828
657 1 32.0854 5.8393 46.7886
576 1 3.93418 9.39879 44.1468
578 1 8.53754 8.79041 45.0731
663 1 11.3109 11.7091 47.6967
580 1 13.0834 8.92782 45.042
582 1 17.8773 9.07019 44.7496
584 1 23.5189 9.08765 45.1531
667 1 20.9823 11.5679 47.4513
669 1 26.775 11.5324 47.4774
588 1 33.8634 8.23114 44.3976
671 1 31.292 11.5787 46.6293
590 1 4.05584 13.9127 44.3206
592 1 8.26482 14.1703 44.8696
594 1 12.8343 13.6242 44.7395
596 1 18.1117 13.4987 45.4291
598 1 23.2823 13.3037 45.1338
421 1 1.49532 1.5158 30.096
675 1 5.30566 16.8993 47.3393
606 1 8.29459 18.1648 43.7433
677 1 11.1279 16.5031 46.6754
608 1 13.7736 18.1066 44.4358
679 1 15.7993 16.1479 47.2003
681 1 20.4438 16.3669 47.5764
612 1 23.7967 17.8116 44.6843
614 1 28.1205 17.8849 43.8421
683 1 26.5191 16.1306 47.0266
685 1 31.0766 16.2278 46.4536
1825 1 11.6951 26.1512 30.3133
689 1 5.84582 21.4702 46.3509
691 1 10.5054 21.1297 46.3035
693 1 15.5244 20.5311 46.8848
610 1 18.3378 19.2613 44.9396
695 1 22.0632 21.0415 47.3635
697 1 26.3798 21.0682 46.1008
699 1 30.1764 20.8058 45.7023
2031 1 1.19434 25.7059 45.9359
620 1 8.55932 23.3989 43.5266
687 1 1.00389 21.2198 46.4504
692 1 12.627 23.5754 49.203
622 1 12.6696 23.7087 44.6738
624 1 18.6613 23.4121 44.9231
682 1 24.4032 18.4051 49.3504
626 1 23.2727 24.5261 44.7728
686 1 33.6499 19.2791 48.1506
628 1 28.7339 24.7544 43.657
632 1 2.69649 4.3697 49.9316
633 1 5.79359 2.09434 47.5606
634 1 8.11265 4.42875 50.4663
636 1 14.1089 4.73367 50.7238
638 1 17.9892 3.55174 49.9636
427 1 16.2932 1.75966 30.5503
640 1 24.0163 4.10624 49.658
642 1 29.0763 4.0629 49.7869
641 1 26.8055 1.84667 47.1473
651 1 15.3754 7.05125 48.1713
653 1 21.0098 6.80087 47.3631
646 1 2.78527 9.46864 49.1672
661 1 5.5747 11.5525 47.8579
648 1 7.96576 9.10035 49.8374
665 1 15.2824 11.6511 48.2806
650 1 12.662 9.20866 50.7
652 1 19.0583 9.09214 49.7795
654 1 23.7995 8.87326 49.9712
656 1 29.7921 8.58115 49.2782
383 1 11.4891 10.8791 26.2278
660 1 2.67052 13.7542 49.3282
662 1 8.44105 14.4385 49.7389
664 1 12.9076 13.5789 51.1002
666 1 18.458 13.4755 50.0773
668 1 23.3417 13.8628 49.4873
670 1 29.8371 13.2446 49.899
672 1 33.8636 14.0162 49.5486
674 1 2.42165 18.6983 49.188
676 1 8.70749 18.9098 49.7936
678 1 13.2725 18.9562 50.0036
413 1 16.3586 20.4952 25.8175
1893 1 6.12336 25.9746 35.8488
2037 1 15.4165 25.288 46.9423
565 1 11.3464 1.27085 43.1995
409 1 6.30087 21.1823 26.0022
2043 1 30.9609 26.1872 46.6188
1967 1 15.7925 25.9806 42.33
2113 1 32.2507 25.9845 50.8329
373 1 21.5249 6.55211 25.8737
703 1 4.80748 1.79486 52.1804
705 1 10.9726 1.80986 52.7329
769 1 31.7517 21.4026 51.9066
708 1 18.7176 4.55074 54.5533
709 1 20.9956 2.22117 52.274
710 1 23.8444 4.21502 54.3429
711 1 26.4855 1.84297 51.7979
712 1 29.6158 3.94392 54.617
1101 1 22.1404 16.8154 76.1822
717 1 5.00519 7.21113 52.1108
719 1 10.3166 7.21362 53.2326
721 1 16.1296 7.1921 52.7057
723 1 20.6748 6.15325 51.8717
725 1 26.1766 6.55106 52.22
727 1 32.2226 6.35127 51.7161
716 1 2.49159 9.53138 54.2822
731 1 6.10165 11.7684 51.9331
733 1 10.2788 11.7526 53.0978
735 1 16.2789 11.8085 52.9443
737 1 21.1995 10.9934 52.3681
724 1 24.1408 8.96534 54.6243
739 1 26.4177 11.1778 51.9411
726 1 29.8738 8.57896 54.0156
741 1 32.5022 11.1919 51.8334
730 1 2.641 13.8492 54.2831
736 1 18.8861 14.0828 55.0138
738 1 24.1871 13.6215 54.1111
740 1 30.1605 13.657 53.9728
744 1 2.62194 18.4951 53.7696
745 1 5.36061 16.5 52.0308
747 1 10.767 16.3504 52.9218
748 1 14.1446 18.6438 55.3449
749 1 15.6803 16.5179 52.4247
750 1 18.813 18.7819 54.446
752 1 24.2045 18.6891 53.931
753 1 26.6807 16.0825 52.1229
714 1 34.2729 3.82511 55.1062
759 1 6.04716 21.145 52.3836
761 1 10.5186 21.4428 52.7488
763 1 15.1246 21.2247 52.5735
765 1 21.2149 21.3638 51.6816
2385 1 10.4746 26.0932 71.7595
754 1 28.3032 19.2446 54.2052
758 1 3.19283 23.3056 54.0437
755 1 32.002 16.7699 51.8273
760 1 7.50409 23.4402 55.6559
1099 1 17.5896 16.3168 75.6065
1089 1 27.3611 12.133 76.5002
764 1 19.0893 23.4686 54.985
1069 1 12.3399 7.12959 75.3071
766 1 23.0119 23.906 54.4024
768 1 29.4174 23.7664 53.8908
773 1 5.1758 2.44238 57.55
706 1 13.545 4.2579 55.1644
777 1 16.0312 2.09875 57.5763
779 1 21.7155 1.38253 56.305
1081 1 6.66536 11.9826 76.3749
702 1 2.38208 4.83619 54.8746
704 1 7.0272 4.45088 54.3278
789 1 10.9425 6.39748 58.0351
791 1 15.678 6.75849 57.3073
793 1 21.6548 7.46992 56.7935
795 1 27.7979 6.7547 56.5621
797 1 32.476 6.53271 57.2467
718 1 7.16403 9.62286 55.3282
803 1 10.7308 11.7129 57.8337
720 1 12.8599 9.56665 55.2457
722 1 18.6647 9.18918 54.9721
807 1 21.5378 12.1302 56.9275
809 1 27.6566 11.5189 56.4765
811 1 32.3339 11.848 56.9727
1095 1 6.40462 16.6673 76.451
732 1 7.25595 14.5635 55.3049
734 1 13.1716 13.5021 55.5602
805 1 16.5373 11.4647 57.6361
746 1 7.96938 18.3407 54.7149
815 1 4.84652 17.5414 57.6587
817 1 10.9208 16.2419 57.8233
819 1 16.6984 15.8044 57.787
821 1 22.1617 16.2047 56.6056
822 1 24.7855 18.175 58.7947
823 1 26.8075 15.4463 55.8659
824 1 28.9414 18.1878 58.8807
825 1 31.4641 16.4314 56.1499
829 1 4.75016 21.2223 56.9277
831 1 10.274 20.9619 57.5241
833 1 16.5377 21.9715 57.0925
835 1 21.8432 20.7171 56.3508
837 1 26.4256 21.9602 56.8767
839 1 31.6584 21.4734 56.4297
2173 1 4.7504 25.8372 56.6645
2175 1 9.62747 25.5438 57.8876
762 1 12.9417 23.7699 55.4688
2177 1 16.5971 25.9876 57.0293
838 1 29.357 24.4109 58.4695
774 1 8.48566 4.09933 60.3078
775 1 10.2493 1.9267 56.9824
776 1 13.1483 3.98164 59.9327
847 1 16.3678 1.79492 61.333
849 1 21.9291 1.7817 60.9649
780 1 24.3249 4.65519 58.2832
851 1 26.5098 2.40725 61.0115
782 1 30.2574 4.43907 59.9939
772 1 2.54479 4.96852 60.1806
787 1 5.22186 6.9935 57.8874
778 1 19.4924 4.50933 59.0194
865 1 26.7726 6.75839 61.8997
867 1 32.3902 5.91389 62.9797
786 1 1.92225 9.58537 60.8862
801 1 5.0524 10.7682 58.2533
788 1 8.63387 8.55981 60.6341
790 1 13.4431 9.74355 60.3989
792 1 19.6861 8.98313 59.5941
794 1 24.4056 9.36654 58.7125
796 1 29.9276 9.31358 59.892
881 1 32.1732 12.5309 62.6878
800 1 2.87764 14.0229 59.9991
802 1 7.05227 14.3707 59.3003
804 1 14.0242 13.7252 60.3437
806 1 19.9935 14.0283 60.0139
877 1 22.4515 10.6401 62.4744
808 1 24.9339 13.719 59.8041
810 1 29.6951 14.1174 59.9283
814 1 3.34289 19.5116 60.7993
816 1 7.61085 19.022 59.7564
818 1 14.2077 19.21 59.3109
889 1 17.0493 16.7687 61.9004
820 1 19.2731 18.572 59.0234
891 1 22.2444 16.6094 62.0498
893 1 26.9296 16.7023 61.9577
895 1 31.8905 16.6234 60.9206
903 1 16.2722 21.368 61.8342
905 1 22.3989 21.273 61.3073
907 1 27.1597 21.5409 61.4132
909 1 31.7429 21.3391 61.1889
828 1 2.75686 24.1645 59.8796
830 1 7.44918 23.3889 60.3206
1057 1 17.1927 1.62303 76.3388
832 1 13.0773 24.054 59.697
2247 1 16.4073 25.9542 61.53
834 1 19.2422 23.2236 59.4592
836 1 23.7768 24.4345 59.6179
843 1 5.429 2.55051 62.1685
842 1 3.33267 5.15933 64.6096
845 1 10.6644 1.69315 62.4838
846 1 14.7379 3.5257 64.1274
848 1 18.8511 3.84808 63.7379
852 1 29.2458 3.75492 64.5142
857 1 5.63367 7.34381 62.5356
844 1 7.72609 4.44672 64.8748
859 1 12.3726 6.80368 62.4724
861 1 16.3233 6.87465 61.9734
863 1 22.1599 6.50428 61.8634
850 1 23.6949 4.15378 64.4582
866 1 29.9746 8.83101 64.5017
856 1 2.91882 9.85521 65.3561
871 1 5.42236 11.7031 62.277
860 1 13.6902 10.1641 64.2116
875 1 17.543 11.6169 62.0595
862 1 19.0592 8.59605 64.3214
864 1 25.0034 8.62691 64.8579
879 1 26.9649 11.2967 61.9373
870 1 1.66829 13.7109 64.068
873 1 10.0909 12.6461 62.3571
872 1 7.81451 14.4677 65.1417
874 1 14.4977 14.6254 64.4764
876 1 19.8973 14.1336 64.252
878 1 24.6219 14.4372 64.4356
880 1 29.411 14.6297 64.3638
884 1 2.1453 18.1912 65.0586
885 1 5.46836 16.5647 63.2096
886 1 8.17824 18.9435 64.4837
887 1 10.596 16.3343 61.8938
899 1 4.73665 21.6852 63.8316
901 1 10.9949 20.8409 62.339
888 1 13.9845 19.2635 63.9964
890 1 19.7393 19.201 63.3109
892 1 24.7244 19.0582 64.4792
894 1 29.6604 19.5564 64.5381
896 1 34.328 19.0737 63.9228
898 1 2.07366 24.6161 64.2151
826 1 34.1298 19.1764 59.0255
900 1 8.89208 24.0789 64.6367
902 1 13.1949 23.9375 64.3611
904 1 19.7084 23.6286 64.2161
906 1 24.1719 23.9168 64.0601
908 1 29.4264 23.9692 63.5546
751 1 20.6265 17.0502 51.7901
913 1 5.2115 2.62099 66.8838
2103 1 5.42724 26.0557 51.9333
916 1 14.3449 3.9362 68.9275
1103 1 27.5486 16.6268 76.1298
919 1 21.1081 1.33116 66.8424
927 1 5.65796 6.99604 67.076
929 1 11.6992 6.64592 66.2605
918 1 19.1406 4.4134 69.3898
931 1 16.5197 7.10386 66.5447
933 1 21.1833 6.21525 66.3885
935 1 26.9469 6.13156 66.7209
937 1 32.5031 5.79172 67.0013
941 1 6.03684 11.2345 67.0821
858 1 9.17877 9.14775 64.9208
932 1 19.2824 9.32013 69.1532
934 1 24.3889 8.26666 69.0175
936 1 29.5462 9.18905 69.1289
1048 1 29.9286 24.9206 74.6257
943 1 10.7584 12.7827 67.0287
945 1 17.7222 11.5746 66.4101
947 1 22.6163 11.1125 66.5226
946 1 20.0271 13.9283 69.041
949 1 27.7622 12.1279 67.0511
951 1 32.0826 12.0028 66.8536
1046 1 24.5059 24.3178 73.6612
955 1 4.61778 15.8237 67.3658
957 1 11.4165 16.6849 66.296
959 1 17.3444 17.2496 66.7322
961 1 21.9929 16.9197 67.4742
963 1 26.9432 16.7865 67.2897
965 1 32.5082 17.514 67.1837
969 1 5.01597 20.5945 67.7078
971 1 11.1472 21.7907 66.8708
973 1 17.1297 21.1286 65.6013
975 1 22.1837 21.5378 66.3787
962 1 24.9028 20.1901 69.0669
977 1 27.8741 22.4038 66.6536
964 1 29.5752 19.3487 69.2451
979 1 32.3539 21.856 66.4169
968 1 2.43868 23.4922 70.1606
783 1 32.1095 1.40599 57.078
915 1 11.1652 1.76667 66.2997
972 1 14.1685 23.2624 68.8733
2317 1 16.7214 25.1972 65.728
976 1 24.8833 24.0506 68.4954
978 1 30.2932 24.5318 68.8327
912 1 3.27108 4.56833 70.4144
983 1 6.27428 1.5587 71.9488
985 1 11.2923 2.35686 72.0644
914 1 8.64801 4.54138 69.0901
987 1 17.5845 1.88838 71.6238
1085 1 17.0142 11.5828 76.1967
920 1 24.6095 3.89451 69.0362
922 1 29.0728 3.20139 69.5907
1067 1 6.6919 7.15925 76.262
997 1 5.85448 7.54845 71.4856
999 1 12.4208 6.6779 71.1123
1001 1 16.8724 6.55322 72.0216
1003 1 21.6113 6.7639 71.2523
1005 1 27.2502 6.22249 71.3765
1007 1 32.2718 6.03432 71.5562
926 1 2.7254 9.36557 69.935
1011 1 5.9625 11.7121 71.8534
928 1 9.32482 9.04661 69.6451
930 1 13.8631 10.2368 68.7403
1021 1 31.8029 11.6771 71.4002
940 1 3.00795 13.3011 69.7366
942 1 8.22355 14.1351 69.7473
1013 1 11.5477 12.3322 70.7563
944 1 15.0373 14.6161 68.4633
1015 1 16.6843 11.9276 71.8259
1017 1 22.4801 11.1929 70.8706
948 1 24.3039 14.4952 69.1541
950 1 29.709 14.6089 69.0533
1019 1 26.9219 12.4623 71.9248
1025 1 4.81531 16.4363 71.4392
1027 1 12.1475 16.3118 70.8209
1029 1 18.1437 16.365 71.5521
1031 1 21.796 17.5455 71.4445
1033 1 27.1338 17.1843 71.7211
1035 1 32.1033 17.705 71.7306
954 1 2.03998 18.84 69.9129
1039 1 5.49569 21.0171 72.3749
956 1 8.35088 18.7888 69.2164
1041 1 11.1407 21.3435 71.7132
958 1 14.4623 19.2766 68.4722
960 1 19.1657 19.6812 69.1487
1043 1 15.9412 21.7745 72.0297
1045 1 22.0261 22.1591 70.8625
1047 1 27.462 22.2644 71.8619
1049 1 32.0298 22.3658 72.2076
2383 1 5.31834 25.7144 73.0554
970 1 8.07815 23.1281 70.2586
974 1 18.6334 24.7049 69.3675
713 1 32.1788 1.79608 52.357
798 1 34.1837 9.25496 59.9138
1055 1 12.5919 1.50228 76.4649
986 1 14.3884 4.1465 73.7601
1105 1 32.3342 16.3116 76.2729
988 1 20.269 4.43238 74.0416
990 1 24.9417 4.22003 73.5467
992 1 29.3229 3.63884 74.1965
2183 1 32.0993 26.0856 56.0417
767 1 25.8878 22.3095 52.3573
982 1 3.57992 4.47623 74.3693
984 1 8.64192 5.12621 73.6046
1044 1 19.703 23.2515 73.72
1071 1 17.5111 6.89245 76.4205
1075 1 28.2214 6.41118 75.9558
996 1 3.13538 9.32781 74.698
998 1 9.62315 10.105 74.243
1000 1 14.1865 9.88102 73.6608
1002 1 20.433 8.97498 74.2846
1004 1 25.0712 8.86989 73.8444
1006 1 29.8867 9.34076 73.932
2251 1 27.644 26.1826 61.1996
1010 1 2.97416 13.9746 74.3614
1012 1 9.23176 13.9123 74.3461
1014 1 13.9685 13.9491 74.3844
1016 1 20.0418 13.6578 73.9195
1018 1 24.5536 14.9234 73.9472
1020 1 29.8639 13.9882 73.6513
1024 1 3.07585 18.7349 74.8755
1026 1 8.59871 18.6173 73.6731
1073 1 22.8403 6.93038 76.4913
1028 1 14.7579 18.5539 74.1003
1030 1 19.2428 19.3838 73.7788
1032 1 24.8046 19.7044 73.9597
1034 1 29.9149 20.302 74.7188
785 1 1.38305 7.63496 57.464
1038 1 3.0507 22.9422 75.2816
1040 1 8.65708 23.4436 74.0551
1042 1 13.365 24.2303 73.7341
2111 1 26.6796 25.8913 51.9177
2181 1 26.0899 25.8664 56.5803
938 1 34.1602 9.77637 69.1593
2105 1 10.0319 25.8074 52.4842