ITEM: TIMESTEP
185000
ITEM: NUMBER OF ATOMS
16000
ITEM: BOX BOUNDS pp pp pp
3.2244156232763999e-01 1.0187755843767724e+02
5.7758740301378850e+00 9.6424125969860512e+01
-5.2365887097900909e+00 1.0743658870979087e+02
ITEM: ATOMS id type x y z
71 1 3.47166 5.76028 -2.83814
6 1 15.1762 8.24871 -4.84391
8 1 19.9293 8.19276 -3.83179
10 1 24.561 8.29352 -3.16932
12 1 28.6797 8.53045 -2.42294
14 1 32.5542 8.99754 -2.70253
85 1 3.56684 10.1695 -3.40746
87 1 7.74591 10.2616 -2.38596
20 1 14.7016 12.4192 -4.32839
89 1 12.3645 10.1297 -1.71779
22 1 19.6349 12.5321 -4.0063
24 1 24.2454 12.777 -3.2777
26 1 28.8193 12.9028 -2.91209
99 1 3.52608 14.836 -2.98092
101 1 8.24011 14.8673 -2.38605
5822 1 34.3498 14.5018 13.3965
36 1 19.4215 16.4738 -4.04738
40 1 28.1521 17.3337 -3.05287
113 1 3.29137 19.3129 -3.1156
115 1 8.53443 19.3035 -2.5133
34 1 14.7407 17.0109 -4.43283
38 1 23.8061 17.3553 -3.36093
42 1 32.8867 17.8687 -2.49273
127 1 3.67389 23.929 -2.69494
129 1 8.34532 23.9194 -2.62055
48 1 15.2167 21.4547 -4.64254
50 1 19.8441 21.6375 -3.96994
52 1 23.667 21.9318 -2.70279
54 1 28.5023 21.6981 -2.36188
56 1 32.7856 21.74 -2.28101
217 1 15.6838 5.87366 11.2841
62 1 15.4392 26.3748 -4.46978
64 1 19.2966 25.8625 -3.58813
66 1 24.4822 26.4184 -3.12884
68 1 28.4801 25.8934 -2.32526
70 1 32.8525 26.2072 -2.00763
10878 1 1.08524 8.01795 -0.388432
72 1 5.59034 7.78096 -0.116235
74 1 9.94463 8.6241 1.14858
76 1 14.9662 7.75781 2.0815
1547 1 16.4684 28.2734 5.3254
10891 1 1.21919 12.5198 -0.0110358
86 1 5.87745 12.404 0.103733
88 1 10.3056 13.1972 1.47438
90 1 14.8036 12.469 1.6318
91 1 16.9782 10.1355 -1.11375
93 1 21.7141 10.4439 -0.197204
95 1 26.3519 10.372 0.0599807
97 1 30.6774 10.8376 0.821999
28 1 32.9356 13.1424 -2.75198
100 1 5.448 17.1656 0.262349
103 1 13.0062 14.8905 -1.93577
105 1 17.2395 15.0283 -1.13886
107 1 21.4841 15.1274 -0.873189
109 1 26.1433 14.8659 -0.0883952
111 1 30.7011 15.6374 0.501481
10904 1 0.854282 17.2501 -0.652912
102 1 10.3902 17.5075 0.823837
117 1 12.4956 19.6061 -1.81002
119 1 17.0608 19.6767 -0.710644
106 1 19.438 17.2803 2.35254
121 1 21.2353 19.6753 -0.287973
123 1 25.8056 19.5496 0.683814
125 1 30.9394 19.9334 1.22292
10917 1 0.904849 21.7365 -0.460171
114 1 5.43905 21.5696 0.335232
116 1 10.1871 21.7426 0.884417
131 1 13.0716 24.0915 -2.22949
133 1 17.0705 23.4272 -1.10212
135 1 21.6668 24.1275 -0.0726745
137 1 26.2312 24.1039 0.529557
139 1 30.7147 24.4153 0.675785
10930 1 1.39359 25.9758 -0.382118
128 1 5.65274 26.04 0.251572
130 1 10.259 26.3702 0.954397
132 1 14.1563 26.2069 1.7447
292 1 26.5983 8.05578 21.9308
10956 1 0.543578 12.7049 5.74295
221 1 25.2072 5.9004 12.4118
10982 1 0.425497 21.5204 5.39063
395 1 5.92187 19.9408 22.0356
78 1 19.7846 8.51346 2.22224
80 1 24.0304 7.99181 3.14066
82 1 28.1135 8.03814 3.64645
84 1 32.2621 8.15165 4.46049
155 1 2.43335 9.79509 2.64467
157 1 7.04088 10.5011 3.15073
159 1 11.9576 10.1756 4.75499
161 1 16.7956 10.4692 5.06956
92 1 19.4116 13.2837 2.37186
96 1 27.9868 12.9655 3.15829
98 1 32.7204 12.9145 3.89858
169 1 3.02983 14.6082 2.55334
171 1 7.43837 14.6024 3.76827
104 1 14.8283 17.167 1.29602
173 1 12.1381 14.8648 4.19237
175 1 16.3433 15.1821 5.12588
177 1 20.8785 15.4391 6.28757
94 1 23.2568 12.45 2.86867
110 1 27.626 17.5467 3.48274
183 1 3.33906 19.328 2.64282
185 1 7.83659 20.0573 3.43836
187 1 12.4335 19.4644 4.44862
108 1 23.3797 16.9307 2.57451
112 1 32.2097 17.0172 3.68631
197 1 3.22773 23.9498 3.68355
199 1 7.80923 23.6933 3.80079
201 1 12.5466 23.986 4.36915
118 1 14.0711 22.0685 1.85175
120 1 18.6485 21.9207 2.65099
205 1 20.7527 23.935 5.694
122 1 23.2911 21.4741 2.71718
124 1 27.7635 22.3376 3.69862
126 1 32.3747 21.7204 4.36595
407 1 1.25439 23.6101 22.5759
134 1 19.3073 26.3652 1.91246
5835 1 33.9836 19.0187 13.7975
136 1 23.9074 26.3946 3.20386
138 1 27.7 26.8384 3.13164
140 1 31.881 26.3075 4.16798
367 1 5.98279 10.0832 22.7297
142 1 4.47087 8.10684 6.02142
144 1 9.03179 8.01473 7.7418
146 1 13.6389 8.08268 7.80492
148 1 18.977 8.28223 8.6967
393 1 0.976714 19.6343 22.1312
156 1 4.36369 12.3722 6.43164
158 1 8.90153 12.7732 6.78184
160 1 13.4709 12.1914 7.79098
162 1 18.6103 12.8737 8.37974
163 1 20.9348 10.6546 5.48702
165 1 25.7456 10.4946 5.88151
167 1 30.1708 10.4933 6.83596
174 1 14.2773 16.7936 7.85096
176 1 18.7406 16.8196 8.63635
179 1 25.2084 14.5294 6.56222
181 1 29.9913 14.5941 6.9043
170 1 5.12686 16.9153 5.88932
172 1 9.56548 17.447 6.9336
189 1 16.401 19.3756 5.21372
191 1 21.0013 20.1513 6.08606
193 1 25.3444 19.2649 6.84633
195 1 29.8728 19.5477 7.05234
75 1 12.7306 6.17807 -1.75254
184 1 4.97842 21.6191 6.90197
186 1 9.56561 21.8888 7.21864
188 1 14.1076 21.4166 8.0675
203 1 16.4471 24.2263 5.06949
190 1 18.6629 21.651 8.55768
207 1 25.3115 24.0772 6.26665
209 1 30.0957 24.1052 7.05724
198 1 4.7085 26.0796 7.19815
200 1 9.70681 26.4637 7.16097
202 1 14.3006 26.54 7.94394
204 1 18.518 25.9692 8.73021
206 1 23.0772 26.6745 9.127
1541 1 2.65256 28.6635 2.91879
219 1 20.3258 5.75424 12.0334
1477 1 16.9524 28.4428 -0.665165
338 1 4.34769 25.792 19.098
150 1 22.9013 7.94483 8.87688
281 1 1.76546 6.26594 15.8273
152 1 27.6951 8.38536 9.29159
154 1 32.0858 7.965 10.2869
149 1 21.8837 6.10676 5.69974
225 1 1.99369 10.3548 9.49513
227 1 6.67748 9.74174 9.67304
229 1 11.1264 10.3158 10.2032
231 1 15.8935 10.1345 11.0024
164 1 23.253 12.444 9.14451
233 1 20.5259 10.4577 11.8428
166 1 27.986 12.2818 9.65443
168 1 32.4189 12.7541 10.0952
239 1 2.33239 14.8793 9.1441
241 1 6.80277 14.5868 9.38073
243 1 11.1791 14.9528 10.594
245 1 16.0115 14.6771 10.9601
247 1 20.9897 14.9489 11.6868
178 1 23.3346 17.0521 9.18769
180 1 27.1984 16.8294 10.1423
253 1 2.4595 19.2575 8.99267
255 1 7.1471 19.3539 10.3211
257 1 11.7835 19.7051 10.6125
259 1 15.8844 19.0135 11.3777
261 1 20.6406 19.3169 12.234
182 1 31.9575 17.4717 9.82534
267 1 2.24236 23.6755 8.98127
269 1 7.52896 24.5521 9.63887
271 1 11.5061 24.4042 10.8782
273 1 15.8751 23.7108 11.9685
275 1 20.5628 23.9689 12.0832
192 1 23.0491 21.8034 9.03434
277 1 25.0919 24.0309 12.5017
194 1 27.5408 21.5092 9.53895
196 1 31.5418 21.8105 10.3737
5913 1 33.0231 23.5465 20.2778
349 1 29.0079 24.0987 19.8157
208 1 27.4337 26.0827 10.1204
210 1 31.7297 26.2344 10.6831
212 1 4.4194 8.17727 12.3716
214 1 9.01282 7.93078 13.5068
216 1 13.6083 8.09631 13.4429
218 1 17.9464 8.06951 14.8418
220 1 22.2846 8.00984 15.3089
1545 1 11.7421 28.3605 4.61529
83 1 30.2368 6.97224 0.507228
295 1 1.58607 10.5268 15.9589
226 1 4.14531 12.7129 12.7643
228 1 8.82728 12.3346 13.4794
230 1 13.0375 12.4415 13.8918
232 1 17.6954 12.7663 14.7467
235 1 25.06 9.96582 12.4954
234 1 22.5454 12.4952 15.0306
237 1 30.2583 10.0868 13.1615
236 1 26.9573 12.6506 16.144
240 1 4.11602 16.6604 12.5786
249 1 25.1299 14.7404 12.7933
251 1 29.6758 14.8804 12.8962
322 1 31.2262 17.1646 22.7516
242 1 9.51996 16.9689 13.5082
244 1 14.0366 16.9959 13.8939
246 1 17.8251 17.027 15.1322
248 1 22.3979 17.4485 15.5116
263 1 24.5936 19.6145 12.9298
265 1 29.5295 19.0598 13.1838
254 1 4.62672 21.8076 12.2461
256 1 8.83788 21.6554 13.6277
258 1 13.5778 21.1763 13.6662
260 1 18.225 21.5344 14.4198
262 1 22.5652 22.1234 15.9232
279 1 29.6675 23.7904 13.2254
5848 1 33.7568 24.1568 13.5231
268 1 4.40102 25.7004 12.6471
270 1 8.86489 26.2223 12.9669
272 1 13.5455 26.1367 14.1792
274 1 17.497 26.0804 14.8975
276 1 22.3752 25.8462 15.3459
1751 1 1.99036 28.0428 22.0347
1615 1 12.0355 28.4824 10.425
282 1 3.75065 8.02291 18.9808
348 1 26.0794 26.1185 22.6618
334 1 25.9291 21.4555 22.7925
289 1 20.1166 6.1493 17.8604
332 1 21.4046 21.09 21.6099
222 1 27.1306 7.85418 16.1316
330 1 17.5068 21.3494 21.3492
224 1 31.624 8.01783 16.3104
297 1 5.97391 10.127 16.3922
299 1 11.2022 10.1176 16.8014
301 1 15.4967 10.0801 17.1945
303 1 19.9282 10.7371 18.2018
305 1 24.6076 10.4221 18.6763
238 1 31.5931 12.5687 16.2702
309 1 2.1528 14.5653 15.6549
311 1 7.02773 14.5966 15.9726
313 1 11.025 14.8013 16.7992
315 1 15.5461 14.6454 18.2456
317 1 20.0711 14.4388 18.2483
319 1 24.6778 14.9866 18.7601
252 1 31.6044 17.177 16.6431
323 1 2.46069 19.2907 15.5672
325 1 6.5422 19.2042 16.0384
327 1 11.1414 19.1285 16.5712
329 1 15.6645 19.3394 17.8383
331 1 20.2869 19.1265 18.5156
333 1 24.9005 19.2758 18.9671
250 1 26.914 17.3354 16.2739
335 1 28.8812 19.5191 19.6518
337 1 2.27875 24.0468 15.3765
339 1 6.89059 23.5867 15.8881
341 1 11.0508 23.9225 16.2559
343 1 15.0189 23.8519 17.7058
345 1 20.2221 23.8161 18.1741
264 1 26.871 21.6492 16.2774
347 1 24.171 23.8179 18.9997
266 1 31.3952 21.3658 16.8816
278 1 26.8206 26.3157 16.2075
280 1 31.0735 26.3437 16.7836
346 1 22.2281 25.9654 21.2124
284 1 8.7387 7.79135 19.5623
286 1 13.1217 7.74607 20.2908
288 1 17.5361 7.72076 20.6558
290 1 22.1199 8.1079 21.6287
287 1 15.2815 6.24102 17.2322
344 1 17.553 26.1422 20.9171
296 1 3.82367 12.7418 19.419
365 1 1.50558 10.1433 21.4201
342 1 12.8734 25.7771 20.1724
298 1 8.58763 12.2679 19.4301
300 1 13.1697 12.3337 20.404
302 1 17.4555 12.4428 20.8203
304 1 22.4074 12.8297 22.2411
306 1 26.3582 12.2527 22.4188
307 1 29.3804 10.1709 19.4296
5874 1 33.2955 10.3293 20.2895
328 1 12.3454 22.0221 20.1459
379 1 1.82466 14.8874 21.8195
73 1 8.10342 5.6727 -2.20537
312 1 8.21994 17.241 19.7811
314 1 12.9189 17.3314 20.4089
321 1 29.4143 14.2649 19.3421
5887 1 33.0642 14.5374 20.2678
310 1 4.32944 17.0139 18.701
340 1 8.64492 26.101 19.7413
5861 1 32.7305 6.25276 20.2948
316 1 17.7225 17.1427 21.3379
318 1 22.1911 16.621 21.8795
320 1 26.8819 16.9908 22.478
5900 1 33.0587 19.2942 19.8533
324 1 4.10584 21.8694 19.1511
326 1 8.44809 21.8652 19.6123
1543 1 7.04697 28.4744 3.90824
1611 1 2.54003 28.2227 9.28338
1683 1 6.48372 28.3525 16.2181
7161 1 32.9984 28.0805 20.5196
1613 1 7.08702 28.5989 10.2215
353 1 5.51069 5.79453 22.6746
143 1 7.89986 6.09389 3.72769
81 1 26.7301 5.87492 -0.286335
147 1 17.2028 5.89656 5.00053
223 1 28.9539 6.26179 12.9513
397 1 10.6123 19.4739 23.2151
18 1 10.9625 12.5619 -5.01563
352 1 3.34086 7.86529 25.1549
354 1 7.80408 7.54181 26.2705
336 1 30.6336 21.7767 23.2702
1761 1 23.0651 27.9226 25.404
294 1 30.5506 8.4372 23.6727
366 1 3.59732 12.3537 25.1495
368 1 8.02875 12.7583 26.124
369 1 9.95652 10.1041 23.0821
371 1 14.3931 10.5103 23.713
373 1 19.2052 10.1618 24.6632
375 1 23.7812 10.2284 25.3264
377 1 28.3234 10.3524 25.8037
383 1 10.5102 14.7551 22.9493
385 1 15.0445 14.3984 24.15
387 1 19.5722 14.1837 24.9219
389 1 23.774 15.0582 25.2901
391 1 28.3527 14.8473 25.5725
477 1 0.685403 23.4111 28.2261
5952 1 32.6705 14.831 26.834
380 1 3.15438 17.1265 25.6146
382 1 7.36248 17.2654 25.6023
381 1 6.14943 14.2599 23.1283
399 1 14.4928 19.0744 23.913
401 1 19.1907 18.9116 24.701
403 1 23.5538 19.0444 25.113
405 1 28.2411 18.9009 26.076
5965 1 33.0011 19.4018 26.456
394 1 2.8869 21.1613 25.727
396 1 7.66105 21.3361 26.0657
449 1 0.776474 15.0934 28.0034
501 1 22.0198 6.19188 38.237
413 1 15.0278 23.6914 23.6388
398 1 12.1473 21.0968 26.7973
415 1 18.9947 23.806 24.5815
417 1 23.7812 23.749 24.8375
419 1 28.2015 23.7308 25.9674
646 1 0.715795 12.5222 50.7076
408 1 3.38131 25.9801 25.4036
410 1 8.12373 26.0977 25.8188
668 1 20.663 17.1887 51.0354
654 1 20.3475 12.5956 50.532
356 1 12.3508 8.14176 26.2529
358 1 16.7864 8.25502 27.1689
360 1 21.3151 7.778 27.8942
435 1 0.692745 10.3575 28.2814
362 1 26.2523 8.01901 28.5681
364 1 30.3234 8.11795 29.7133
437 1 4.98282 10.4447 28.6243
439 1 9.78193 10.5752 29.0371
370 1 12.6785 12.825 26.7082
372 1 17.029 13.3138 27.9789
374 1 21.612 12.5016 28.5666
376 1 26.2336 12.8767 28.4519
378 1 30.2894 12.6693 29.3134
5939 1 33.0206 10.8651 26.5525
573 1 28.5554 5.83541 42.4169
451 1 4.7246 15.0553 28.6694
453 1 9.59504 14.836 29.7298
386 1 16.2606 17.6374 27.2502
390 1 25.4242 16.6913 28.8879
495 1 9.07684 5.93289 35.1383
465 1 5.76485 19.3595 28.9737
467 1 9.90617 19.3067 30.1601
384 1 11.8496 16.6514 26.8654
388 1 21.5918 17.0664 28.5849
392 1 30.5395 17.5127 29.8364
308 1 31.0687 13.0107 23.5419
479 1 5.45068 23.8629 28.7834
481 1 9.28471 23.6266 29.6928
400 1 16.3855 22.246 27.1803
402 1 20.8618 21.3942 27.6438
404 1 25.3235 21.4251 28.7015
406 1 29.82 21.7357 29.3623
5978 1 32.7396 24.2305 26.5541
412 1 11.9596 25.6449 26.553
414 1 16.4762 26.1301 27.6223
416 1 21.1273 25.8573 28.2809
418 1 25.949 25.9848 28.5707
420 1 30.524 26.5371 28.8541
422 1 2.45036 7.97849 31.9534
424 1 7.35952 8.11318 31.8165
426 1 11.9107 7.96442 32.4774
350 1 30.4578 26.5688 23.1242
567 1 12.7008 5.97879 42.5423
698 1 26.383 26.748 50.2994
674 1 1.25972 21.9611 50.5654
436 1 2.69233 12.6699 31.9656
438 1 7.3355 12.7394 31.882
440 1 11.6773 12.3369 32.8215
441 1 14.3759 10.2053 30.2663
443 1 19.074 10.3678 30.6426
445 1 22.8889 10.1951 31.4913
447 1 27.4159 10.1097 31.9919
6004 1 31.8264 10.4509 32.7796
450 1 2.51733 17.3673 31.6965
452 1 7.54312 17.292 32.9221
455 1 14.6438 15.3864 30.1083
454 1 12.2434 17.0317 33.514
457 1 18.8658 14.8103 31.6275
459 1 23.3317 14.7171 31.7831
461 1 27.75 14.9841 32.325
6017 1 32.4882 14.9489 32.704
469 1 14.6014 19.3184 30.3529
456 1 16.1777 16.9303 33.586
471 1 18.5081 19.1774 30.0632
473 1 23.2403 19.4031 31.4126
475 1 27.2806 18.8668 32.2009
6030 1 31.7567 19.576 33.0684
464 1 3.39811 21.3054 31.4471
466 1 7.71098 21.3633 33.0772
483 1 14.3892 24.002 29.9607
468 1 12.162 21.504 33.3865
485 1 18.2908 23.6481 31.2827
487 1 23.0278 24.0323 31.3939
489 1 27.5197 23.6384 32.1071
6043 1 31.9088 23.4701 32.4315
478 1 2.85773 25.5916 31.8524
480 1 7.00995 25.9212 32.3416
482 1 11.5825 25.8518 33.0887
484 1 16.2386 26.1552 33.7086
533 1 0.4127 19.3433 34.2684
6173 1 34.0812 23.9859 41.8434
700 1 31.9108 25.6128 49.559
688 1 1.29797 26.0334 50.6123
428 1 16.3647 7.82696 33.4515
430 1 20.6443 7.83738 34.2798
432 1 24.7782 7.99415 35.1969
434 1 28.7942 8.18942 35.58
1829 1 18.5292 28.337 31.0475
507 1 4.71714 10.4607 35.0188
509 1 9.31109 10.3884 35.5271
511 1 13.7807 9.93719 36.3689
442 1 16.2946 12.6248 33.5296
513 1 18.2665 10.1627 37.2591
444 1 20.3307 12.5506 34.3659
446 1 25.0207 12.4707 35.005
448 1 29.7555 12.284 35.4902
521 1 5.10765 15.0582 35.2341
523 1 8.98149 14.8882 35.5471
525 1 13.5405 14.8087 36.4976
527 1 18.0028 14.8518 37.3617
458 1 21.1295 17.1368 34.7968
460 1 25.5492 17.7193 35.2802
462 1 29.9458 16.5766 35.8599
535 1 4.26053 19.5426 35.3696
537 1 9.24341 19.5057 36.4409
539 1 14.0392 19.3258 37.3615
549 1 4.10039 23.4165 34.9883
551 1 8.82801 23.4451 36.0728
553 1 13.3861 23.5069 36.6353
470 1 16.216 21.5192 33.4703
472 1 20.0899 21.3794 33.985
474 1 25.5378 21.6536 34.759
476 1 29.3626 21.1131 35.7891
6108 1 33.1684 23.5683 36.6346
660 1 1.20265 17.2034 50.0443
486 1 20.858 25.8318 34.2771
488 1 25.1125 25.59 35.3111
490 1 29.7109 25.853 35.3583
409 1 6.14693 23.9266 22.9002
492 1 2.02842 7.73743 37.8615
494 1 6.7116 7.97854 38.0678
496 1 11.1274 8.00871 38.7947
498 1 15.3506 7.61202 39.613
515 1 22.528 10.6917 37.2602
500 1 19.83 8.1524 40.9362
504 1 31.0305 8.4171 40.369
506 1 2.39541 12.478 37.6832
508 1 6.83636 12.5826 38.6989
510 1 11.4054 12.6882 39.0087
512 1 15.4731 12.2238 39.7919
514 1 19.9227 12.9479 40.6222
517 1 27.0992 10.1784 38.5636
6069 1 32.5812 10.0903 37.4316
518 1 30.3677 13.0595 40.1283
522 1 6.16306 16.8936 38.5299
524 1 11.3182 17.2744 38.8485
526 1 15.7367 16.8108 39.8077
529 1 22.7871 14.9256 37.7329
528 1 20.1799 17.1267 40.9401
531 1 27.4281 14.9343 38.3574
6082 1 32.951 14.7219 37.6263
532 1 30.3729 17.8107 40.1124
520 1 2.25985 16.435 38.2733
541 1 18.393 19.1333 37.034
543 1 22.3925 19.641 37.8223
545 1 27.0537 19.3297 38.5157
6095 1 33.4704 19.3219 37.1765
534 1 1.32909 21.3019 38.4489
536 1 5.47349 21.5168 38.7856
538 1 11.5047 21.4635 39.9423
540 1 15.662 21.5819 39.9757
555 1 17.7657 23.7151 37.3983
557 1 22.4331 23.5449 38.2387
559 1 27.1638 23.9163 38.9964
546 1 30.6391 21.8088 40.1609
548 1 1.61245 26.0595 37.5772
550 1 5.98292 26.1959 38.5465
552 1 10.7102 26.0898 39.3412
554 1 15.5466 26.3896 39.6894
556 1 20.1032 26.0896 40.6438
558 1 24.7277 26.1701 41.2993
2037 1 11.7662 28.2936 48.9305
633 1 3.95728 5.9733 47.3825
560 1 30.9337 25.7994 40.0671
502 1 24.8427 8.27137 41.1659
1833 1 27.23 28.0971 32.0289
577 1 4.02872 10.1133 41.2475
579 1 8.70248 10.5813 41.4386
581 1 12.8085 9.74541 42.6719
583 1 17.2665 10.6799 43.8251
585 1 21.897 10.3123 44.7836
516 1 24.4364 12.916 41.1564
587 1 27.7768 10.6135 43.0932
411 1 10.8303 23.3358 23.5252
588 1 31.7671 12.6773 44.3937
591 1 4.41877 14.7478 41.9819
593 1 8.68722 14.9299 42.0228
595 1 13.1706 14.6246 42.7298
597 1 17.8032 15.1268 43.2119
599 1 21.8596 14.8852 44.4816
530 1 24.3124 16.9813 41.0912
601 1 28.122 14.8992 42.8789
605 1 3.86504 19.4642 41.9048
607 1 8.42526 19.3901 41.9129
609 1 13.9482 19.2259 43.5356
611 1 17.955 19.1947 43.3336
613 1 22.0341 19.4993 44.5792
615 1 28.1268 19.3862 43.0279
619 1 3.99833 23.604 41.8316
604 1 1.50216 21.4676 43.9706
621 1 7.89986 23.6103 42.0691
623 1 13.3618 23.6406 42.5508
625 1 17.8015 23.9197 43.4514
542 1 20.1743 21.5251 40.9434
627 1 22.2539 24.0601 44.2694
544 1 24.6885 21.5376 41.3616
629 1 28.1996 24.2401 43.2354
1827 1 14.1831 27.8495 30.2785
562 1 1.6364 7.91543 44.1896
564 1 6.30004 8.14443 44.8053
566 1 10.176 7.92554 45.8202
568 1 14.9469 7.56468 46.3926
570 1 18.9695 7.55664 46.8625
572 1 25.145 8.04277 45.6923
686 1 32.3706 21.0902 49.6668
574 1 31.2664 8.03151 44.273
647 1 3.55732 10.7635 47.4464
576 1 1.78074 12.6593 43.7181
578 1 6.10799 12.1697 44.755
580 1 10.6062 12.8137 45.2857
582 1 14.7871 11.9024 46.2867
584 1 19.518 12.5625 46.631
586 1 25.6851 12.5306 45.88
657 1 29.1247 9.96013 47.6352
590 1 1.79877 17.0855 44.2029
592 1 6.35297 17.629 44.8782
596 1 15.3774 16.5226 46.4125
598 1 19.0432 17.2179 47.3416
600 1 25.0617 16.9588 45.5484
671 1 29.169 15.2652 47.3375
602 1 31.7148 17.4108 44.1343
675 1 3.44236 19.218 47.5058
594 1 11.0108 17.3278 45.2983
685 1 29.1967 19.3001 47.754
689 1 3.80423 23.408 47.6078
606 1 6.189 21.9855 45.1511
608 1 10.6265 21.5771 45.4192
610 1 14.783 22.443 46.5194
612 1 19.1146 21.8166 47.0442
614 1 25.6576 22.1096 46.0551
699 1 29.0517 24.1097 47.9175
616 1 31.7763 21.7437 44.8437
618 1 1.67719 26.0113 44.215
620 1 5.86958 25.7873 44.6804
622 1 10.454 25.3148 45.5889
624 1 14.6154 26.0915 46.2377
626 1 18.8209 26.048 46.6815
628 1 25.9182 26.4367 45.5267
630 1 31.7547 26.5398 45.3602
632 1 1.19348 8.29875 50.2464
1831 1 23.4914 27.7649 31.9032
1897 1 13.3175 28.2612 36.0015
361 1 23.7052 6.15106 25.3526
642 1 26.1003 7.94422 49.8678
644 1 33.2682 8.07533 49.4689
7356 1 33.0422 28.1842 37.6938
423 1 5.35447 5.85276 28.8112
649 1 8.44191 10.0067 48.4635
651 1 12.3227 9.93534 48.7262
653 1 16.7343 10.3105 49.7956
655 1 23.1033 10.0866 48.6114
656 1 26.7615 12.4756 50.0746
658 1 32.8543 12.4842 49.1153
661 1 3.33344 14.983 47.5144
503 1 27.3182 5.86813 38.8203
663 1 7.86096 14.6223 48.2465
665 1 12.1236 14.4793 49.1943
667 1 16.7456 14.9566 49.5122
669 1 22.7738 14.7375 49.0211
670 1 26.5737 17.074 50.1659
672 1 32.5292 17.2839 48.6338
640 1 20.8537 7.81902 50.9529
677 1 7.76307 19.1179 48.2658
679 1 12.4352 19.2032 48.97
681 1 16.798 19.5614 50.0857
683 1 22.894 19.4599 48.6038
569 1 17.3639 5.67312 42.6646
691 1 7.75672 23.4956 48.5029
519 1 0.72946 14.8996 34.1244
693 1 12.3969 24.1244 48.7728
695 1 16.4215 24.2374 50.1517
697 1 23.0807 24.0672 48.4178
684 1 26.5175 21.8919 50.1757
1895 1 8.66562 28.2789 35.9553
1893 1 4.18429 27.7579 35.3173
1899 1 17.9846 28.4963 37.284
1825 1 9.62838 28.3404 29.6898
639 1 17.2896 6.03147 49.999
1901 1 23.156 28.0197 37.6131
499 1 18.0852 5.64649 36.9166
1757 1 14.8679 28.0832 23.9383
662 1 5.72241 16.8654 50.7004
463 1 0.460571 18.8573 28.0292
433 1 27.9242 6.19803 31.893
7291 1 31.833 27.9396 33.1587
2035 1 8.09041 27.861 48.5407
1755 1 10.0769 27.9996 23.1767
1759 1 18.5667 27.7824 24.7927
2039 1 16.4834 28.1764 49.428
5926 1 32.4903 6.33586 26.4373
357 1 14.5364 5.92322 23.835
1965 1 8.40624 28.1473 42.9969
643 1 29.4832 6.12353 47.4961
634 1 5.79223 7.94469 51.0494
636 1 9.93038 7.61737 51.5858
638 1 13.805 7.74914 52.4534
690 1 5.10263 25.9508 51.4193
985 1 9.71678 5.76359 74.1096
2243 1 1.76454 28.1111 66.9018
714 1 33.6297 8.15064 53.5654
717 1 2.56879 9.97223 54.0307
719 1 7.29993 9.5697 54.9449
650 1 9.42263 12.2355 51.6796
652 1 14.1145 12.4042 52.2889
723 1 17.9405 9.88176 53.5558
1077 1 33.9855 10.0617 76.4333
725 1 24.0394 10.244 52.522
726 1 27.7055 12.6215 54.0929
727 1 30.438 10.9499 51.754
756 1 33.8126 21.0781 53.3082
731 1 2.7638 14.2529 53.3816
733 1 7.55957 14.9334 54.5123
737 1 18.4227 14.4038 53.9322
676 1 5.82579 21.4303 51.1443
739 1 24.3603 14.7487 53.305
741 1 30.1786 15.2176 51.4709
745 1 2.95717 18.8555 53.8405
664 1 9.99406 17.01 51.5759
747 1 7.35174 19.3112 54.4153
666 1 14.6568 16.9131 52.3757
751 1 18.2669 18.9459 54.5859
753 1 24.0476 19.2644 53.2911
740 1 27.5748 16.7569 54.7016
6537 1 34.3113 19.5263 69.9803
759 1 2.90862 23.6235 54.3181
843 1 1.44784 6.02223 66.5875
680 1 15.0322 21.834 52.8651
765 1 18.2678 23.3883 54.3157
1086 1 20.9348 17.0135 79.0736
767 1 24.2369 24.0323 52.798
754 1 27.7146 21.5587 55.0034
769 1 29.7098 23.8783 52.4215
2319 1 21.3826 27.8425 67.558
692 1 9.67684 25.9336 52.2451
694 1 14.3219 26.2796 52.4822
1026 1 7.43656 21.4568 77.1092
768 1 27.3671 26.4924 55.5643
770 1 33.9691 25.9848 53.9356
2313 1 3.1261 27.9491 70.6785
1059 1 23.7904 5.98735 76.2058
704 1 4.1459 7.71447 56.7107
1024 1 1.79031 21.4253 77.5909
708 1 15.7273 7.21327 56.8148
710 1 22.1015 8.53259 55.4267
2317 1 14.6866 28.3043 68.4921
712 1 27.3939 8.51573 54.441
1049 1 33.719 24.0088 69.18
678 1 10.358 21.0248 51.6169
718 1 5.01341 12.2399 56.7908
720 1 9.21799 12.2708 58.0915
721 1 11.8805 9.62034 55.3549
722 1 15.235 11.8684 57.0709
724 1 21.803 12.4466 54.8569
795 1 25.0497 10.1556 57.1938
797 1 30.944 10.2909 56.5803
735 1 11.9935 14.2496 54.8951
809 1 25.2518 14.7065 57.9338
811 1 30.8484 14.1571 56.3771
2387 1 16.257 27.8049 72.9706
732 1 4.69541 16.9055 56.8516
734 1 9.12677 16.9004 57.8124
749 1 11.7237 18.8144 55.5189
736 1 15.7937 16.3594 56.3326
738 1 21.6354 17.0657 55.9156
823 1 25.2395 20.7688 58.2955
825 1 31.2656 18.9436 56.7405
761 1 7.13113 23.8412 54.8095
746 1 4.47936 21.4935 57.3843
763 1 11.7909 23.426 55.2593
750 1 15.4547 21.3132 57.482
752 1 21.1738 21.5675 56.0503
837 1 24.6223 24.2251 57.0906
839 1 31.1575 23.7314 55.9192
1058 1 20.3198 7.78285 78.7554
760 1 4.92736 26.1435 57.6195
713 1 29.9656 6.61825 52.1554
764 1 15.3004 26.0418 56.8809
766 1 21.0169 26.2912 55.3562
2103 1 2.98316 28.3942 54.295
2383 1 3.8458 28.2271 75.2356
706 1 9.94413 7.56814 58.4979
2247 1 14.2953 28.0541 63.9288
778 1 16.4477 7.8681 61.3278
780 1 22.364 7.91258 60.179
782 1 28.8248 7.64683 58.7326
787 1 2.39224 10.2184 60.2667
789 1 6.59812 9.9045 60.5763
791 1 12.8747 10.1363 59.8427
793 1 19.353 10.0375 57.951
792 1 16.7708 12.5691 61.0508
794 1 23.1005 12.8041 60.8014
796 1 28.0841 12.2548 59.2725
867 1 32.4417 10.0697 60.9474
801 1 1.96539 14.4041 59.6755
803 1 6.30636 14.3393 60.5808
805 1 13.0831 14.8331 59.1641
807 1 19.2069 14.0895 58.5977
806 1 16.4724 17.3804 60.7978
808 1 22.4657 17.2615 59.6374
881 1 32.067 14.7148 60.0653
815 1 1.67273 19.0565 59.8951
817 1 6.73099 18.827 60.6125
819 1 12.6633 19.5413 59.8263
821 1 19.1871 19.0733 58.6165
893 1 26.0841 19.6014 61.7958
810 1 28.1605 17.3962 59.1953
895 1 32.5035 19.6111 60.8747
829 1 2.61019 23.7517 60.0211
831 1 7.04061 23.1856 60.8038
748 1 9.93185 21.3217 57.8689
833 1 13.2438 23.7918 59.6261
835 1 18.8985 23.7554 58.5754
820 1 16.0465 21.4081 61.432
822 1 22.1694 22.0555 60.444
907 1 26.3262 24.1422 61.3002
824 1 28.727 21.3882 59.0942
909 1 32.3212 23.9482 61.0604
742 1 33.4195 16.616 54.438
762 1 8.75758 26.4219 58.0109
1116 1 26.9106 25.8394 78.0001
834 1 16.2268 25.7378 61.5657
836 1 22.521 26.3164 59.7537
2179 1 18.6627 28.5202 58.8812
838 1 28.9161 26.1073 59.2273
774 1 4.57769 7.8461 63.5877
776 1 10.6025 8.34096 62.6189
1040 1 7.60377 26.0599 77.0511
1090 1 31.2031 16.9855 78.9885
850 1 24.4853 7.91033 64.436
852 1 29.3821 7.78023 63.3928
1102 1 26.7547 21.679 77.9482
788 1 3.87572 12.4592 63.2026
790 1 10.5068 12.5877 62.506
861 1 14.4881 9.7373 63.9369
863 1 20.3703 10.2913 62.5694
865 1 25.7685 9.71928 61.1706
864 1 23.5874 12.8126 64.9837
866 1 30.0405 12.319 63.5032
937 1 33.1255 10.1233 65.3942
873 1 7.74974 14.808 65.2214
875 1 13.7074 15.1203 63.7437
877 1 19.952 14.8043 62.5077
879 1 25.9853 14.9133 62.5216
951 1 33.3558 14.7602 65.1602
802 1 3.94825 16.5198 63.2155
887 1 7.38681 19.2012 64.9926
804 1 10.1286 16.5674 62.5201
889 1 14.2765 19.4446 64.082
891 1 20.0707 19.2632 63.0807
878 1 23.3729 17.4362 64.3772
880 1 29.5502 17.0838 63.3977
1033 1 33.0367 19.1607 65.4463
816 1 4.05556 21.0443 63.5334
818 1 10.216 21.2538 62.4477
903 1 13.1608 23.7914 63.8705
905 1 20.092 24.1488 63.2076
892 1 23.676 21.5609 64.9894
894 1 29.1533 21.3726 63.4625
964 1 33.1893 23.4334 64.7524
830 1 4.32825 25.5905 63.8304
832 1 10.1062 26.2701 62.4853
906 1 23.6163 25.4756 64.2203
908 1 29.5986 25.6697 63.2208
844 1 4.5479 7.43035 67.9411
2249 1 20.0108 28.252 63.2455
846 1 11.2664 7.99352 66.8509
1088 1 26.6363 16.9671 77.2474
848 1 17.9289 8.13829 66.0389
922 1 31.2688 7.84356 68.9337
1038 1 1.45437 25.7728 78.042
857 1 1.63288 10.6537 65.7506
858 1 5.26834 12.4847 67.6749
859 1 7.4104 10.0679 65.3572
860 1 11.4379 12.3046 66.2975
931 1 15.0054 10.0933 68.5863
862 1 17.3622 12.7993 65.6448
933 1 21.2865 10.4662 67.0444
935 1 27.0701 10.4632 66.0774
936 1 30.6525 12.5112 68.3132
871 1 1.92119 15.2281 66.138
872 1 5.41455 17.0041 67.7592
947 1 21.3064 14.9878 67.5007
949 1 27.6805 14.3163 66.8551
885 1 1.53305 19.1892 66.177
874 1 11.0897 17.3775 66.9395
959 1 15.2393 19.0122 68.555
876 1 17.5969 17.0014 65.5682
961 1 20.6361 19.6471 67.8108
948 1 24.4194 16.8199 68.9571
963 1 27.3746 18.9639 66.509
950 1 30.7065 17.095 67.9221
899 1 1.79965 23.8497 66.1181
886 1 5.16542 21.4741 68.2113
901 1 8.56745 23.7588 65.1397
888 1 10.8849 21.4536 67.0759
973 1 14.9523 23.5812 68.0388
890 1 17.8543 21.8438 65.9657
975 1 21.0504 23.3058 67.455
977 1 27.0427 23.479 66.6478
1035 1 30.1984 21.8333 67.9304
728 1 33.8834 11.9987 53.9447
900 1 5.60133 26.0591 67.6522
2461 1 29.6284 28.1112 75.1473
902 1 11.4763 26.0776 66.6331
1119 1 34.2191 23.4414 76.7047
904 1 17.0081 26.2238 66.0402
978 1 30.7604 26.4459 67.706
1101 1 23.4144 19.0643 76.3591
914 1 6.09718 7.65697 72.3056
916 1 12.2885 8.13514 71.1958
918 1 18.8941 7.61751 69.9076
920 1 24.6535 7.89251 69.234
1099 1 17.115 18.5834 78.1637
992 1 32.1184 7.71061 72.624
927 1 2.53585 10.2921 70.3503
929 1 8.78866 9.97847 69.3822
932 1 19.0526 11.8659 70.0787
1003 1 22.0394 10.3116 71.9394
934 1 24.6814 12.338 69.5597
1005 1 28.4054 9.90921 70.6613
1006 1 31.9782 12.3866 72.4048
941 1 2.93478 14.8403 70.9469
930 1 12.2575 12.5974 71.0013
943 1 9.20104 14.6469 69.2057
945 1 15.8123 14.5323 68.5736
1017 1 21.898 15.0674 72.1444
1019 1 28.3862 15.3668 71.364
955 1 2.82411 18.9887 70.6552
957 1 9.01837 19.4082 70.0707
944 1 12.6232 16.6707 71.1866
946 1 18.7491 17.2765 70.717
1031 1 22.0668 19.4023 72.2948
1020 1 28.1609 19.1828 71.0653
1022 1 32.4172 16.9619 72.3396
969 1 2.9725 23.9019 70.7535
971 1 9.13443 23.6756 69.6143
958 1 13.075 21.5227 71.0126
960 1 17.8347 21.1103 70.6481
1045 1 22.3317 23.8361 72.0143
962 1 24.8745 21.5658 69.3966
1047 1 27.805 23.8835 70.4428
1034 1 32.4465 21.486 72.9249
1104 1 31.2531 21.6737 78.5937
972 1 12.9434 26.0385 71.2346
974 1 18.7006 26.3937 70.1484
976 1 24.4892 26.1575 69.31
983 1 3.54153 6.93544 75.197
986 1 13.564 7.8484 75.5426
705 1 7.80421 5.73192 54.8824
988 1 19.6915 7.68652 75.0168
990 1 25.8373 8.01898 73.5434
648 1 5.39408 12.3097 51.3312
997 1 3.51648 10.6896 74.6398
928 1 5.93911 12.3669 72.1454
999 1 9.90178 10.4643 74.0734
1000 1 13.9139 12.4199 75.5469
1001 1 15.7646 9.68994 72.9293
1002 1 19.6165 11.8601 74.7336
1004 1 26.4473 12.6951 74.0414
1075 1 29.3678 10.4175 75.5542
1111 1 11.2719 23.8927 78.6382
1118 1 31.4897 25.9606 78.9324
1011 1 3.84943 15.2496 75.1931
1013 1 10.2292 14.4921 73.7202
1015 1 16.2195 14.2811 72.6726
1089 1 29.8189 15.1748 75.7891
942 1 6.79723 16.924 72.3598
1027 1 10.0592 19.3981 74.2384
1014 1 13.6302 16.7037 75.7743
1029 1 16.0394 18.9377 73.0013
1016 1 19.6835 16.5196 75.0132
1018 1 25.2561 16.7839 73.2461
1103 1 29.5836 19.2659 75.5358
1100 1 20.726 21.1016 79.2636
755 1 29.6392 19.075 52.6533
1039 1 4.06873 23.8839 74.8689
956 1 6.32194 21.2086 72.4604
1041 1 10.469 23.6511 74.0046
1028 1 13.8323 21.5825 75.5593
1043 1 16.7497 23.6419 73.2008
1030 1 19.5742 21.4164 75.0187
1032 1 25.9382 21.506 74.038
1117 1 29.7269 24.1612 75.0064
2323 1 33.0558 28.1868 65.2164
970 1 7.00004 25.8904 72.3
1042 1 14.0086 26.2062 75.7487
1044 1 20.4823 25.913 74.8127
1046 1 25.8237 26.3103 73.706
1048 1 31.5747 26.4673 72.1489
982 1 1.04413 8.41264 77.756
984 1 7.20848 8.31596 76.9147
2183 1 31.6391 28.2087 56.0404
1115 1 23.4637 23.6 76.5357
1060 1 27.1147 8.31443 78.1561
2173 1 1.85198 28.3281 60.2128
1062 1 31.5562 8.28388 79.0096
996 1 0.941607 12.1492 78.1782
998 1 7.29629 12.9231 76.3701
1069 1 11.3192 10.2782 78.046
1071 1 16.6602 10.321 77.5549
1113 1 17.2438 23.8666 77.6453
1073 1 23.2897 10.5014 76.3366
1076 1 31.7257 12.3788 79.1201
1010 1 1.10574 17.2626 78.1625
1012 1 7.70849 16.9317 76.908
1083 1 11.1996 14.8085 78.4218
1085 1 17.3514 14.8774 77.7967
1087 1 23.1007 14.3764 76.8301
1074 1 27.249 12.5565 77.7946
1091 1 34.1079 14.6445 75.8669
1025 1 3.95508 18.9426 75.2548
1097 1 11.1854 19.4782 78.6789
2245 1 8.45275 28.4509 65.17
2113 1 29.8251 27.7266 51.8593
2457 1 17.0182 27.8893 77.0946
2321 1 26.7973 28.2008 65.9685
2107 1 11.2257 28.051 55.6439
845 1 7.52211 5.80299 65.0719
987 1 16.1481 5.82472 73.1939
923 1 32.4161 5.93289 65.3255
1114 1 20.7275 25.8096 78.4347
682 1 20.2714 21.8554 51.6702
696 1 20.1022 26.4349 51.4495
1067 1 4.96323 10.341 79.4408
1054 1 8.8716 8.34901 81.0392
11 1 26.8087 5.77791 106.455
1056 1 14.1719 8.05518 80.6861
1219 1 0.763277 15.0143 89.5128
1070 1 15.0828 12.2996 81.2661
1129 1 24.2229 6.55185 81.2705
12100 1 1.00839 26.59 101.582