ITEM: TIMESTEP
211000
ITEM: NUMBER OF ATOMS
16000
ITEM: BOX BOUNDS pp pp pp
4.8498534925551695e-01 1.0171501465074985e+02
5.7465222457552159e+00 9.6453477754243835e+01
-5.2352752884159983e+00 1.0743527528841440e+02
ITEM: ATOMS id type x y z
71 1 3.6667 5.84789 -3.23696
32 1 11.0074 17.1157 -5.29757
6 1 15.3057 7.97014 -4.47314
8 1 19.7808 7.82007 -4.09551
10 1 24.5663 8.12243 -3.171
12 1 28.8343 8.20469 -2.79461
14 1 32.9206 7.87651 -2.53271
85 1 4.04999 10.2209 -3.21949
87 1 8.73053 10.1639 -2.6677
20 1 15.403 12.5072 -4.82431
89 1 12.8798 10.1775 -2.11251
22 1 20.2693 12.6854 -4.21482
26 1 28.4261 12.1098 -2.82074
28 1 32.3738 12.5223 -2.24957
99 1 4.13238 14.7815 -3.29779
101 1 8.78563 15.0015 -2.66542
105 1 17.8417 14.5562 -1.34348
24 1 24.297 12.6042 -3.35185
42 1 32.988 16.3924 -1.90641
113 1 3.69336 19.4165 -2.84174
342 1 13.1329 26.4389 20.574
115 1 8.49783 19.1208 -2.85043
10982 1 0.848699 21.9643 5.74101
36 1 19.6106 16.894 -4.08268
38 1 24.1377 17.1039 -3.57652
40 1 29.2838 16.9659 -2.80579
127 1 4.33973 23.9898 -3.22788
129 1 8.29074 23.6275 -2.7272
83 1 30.6023 5.83618 0.923589
48 1 15.6883 21.3335 -4.89775
50 1 19.7389 21.5522 -4.11742
52 1 24.1981 21.6344 -3.22446
54 1 28.2734 21.3311 -2.34801
56 1 33.3308 20.9445 -2.27425
10969 1 0.729816 17.1627 6.01851
62 1 15.0682 26.0864 -4.61901
64 1 19.8486 25.9471 -4.37573
66 1 24.3876 26.0489 -3.23973
68 1 28.2806 26.0326 -2.02489
70 1 32.9887 26.1643 -1.81174
10878 1 1.47163 8.55428 -0.649464
72 1 6.00259 8.07338 0.389445
74 1 10.9167 8.05632 0.843055
326 1 8.08774 21.8708 19.986
287 1 15.5481 6.36611 17.4288
5809 1 33.7927 10.1344 14.2212
75 1 12.5276 6.11566 -2.23627
292 1 26.2996 8.33162 22.5451
10891 1 1.01446 12.7918 -0.433408
86 1 6.34954 12.404 0.601014
90 1 14.9716 12.6266 1.34783
91 1 17.3629 9.73581 -1.3046
93 1 21.5778 10.2036 -0.308214
95 1 26.0586 10.0696 0.486403
97 1 30.8644 10.5788 0.700399
88 1 10.4513 12.6462 0.91852
103 1 12.8951 14.5861 -1.8055
107 1 21.6007 14.9494 -0.257797
109 1 26.1559 14.6527 -0.196011
111 1 29.917 14.9613 1.12094
10904 1 1.45244 17.6609 -0.651778
100 1 5.87796 17.0973 0.47143
102 1 10.3904 17.3451 0.956581
117 1 13.181 19.1669 -1.56545
104 1 14.8567 16.8103 1.75448
119 1 17.7724 18.9099 -1.29944
121 1 21.5895 19.3976 -0.638045
123 1 26.2147 18.9828 -0.11611
125 1 30.5098 19.2384 0.94443
10917 1 1.44033 22.1693 0.212261
114 1 5.9665 21.7154 0.356492
116 1 10.2813 21.4839 0.964729
131 1 12.7322 23.6156 -1.41018
118 1 14.9338 21.619 1.69502
133 1 17.4257 23.5789 -1.512
135 1 21.9229 24.1492 -0.611129
137 1 25.6659 23.1364 0.139788
139 1 30.426 23.1316 0.827141
10930 1 1.33775 25.925 0.129997
128 1 5.87776 25.9018 0.514685
130 1 10.5176 25.994 1.07486
328 1 12.8444 20.8933 20.2164
5913 1 33.4743 24.0625 19.6921
10956 1 1.02991 12.3619 5.98833
76 1 14.5847 8.00245 1.67399
78 1 19.6541 8.35475 2.53282
143 1 7.56785 6.12703 3.43005
80 1 23.5064 8.04233 3.23723
82 1 29.0032 8.52679 3.99668
84 1 32.7895 7.9612 4.42485
155 1 3.10924 10.4223 3.08765
157 1 7.68144 10.7817 3.97072
159 1 12.3952 10.2726 4.40187
92 1 19.6108 12.8852 3.08289
94 1 23.5463 12.0608 2.77954
96 1 27.9524 12.7888 3.71284
98 1 32.4517 12.4451 4.68189
169 1 3.35601 15.2421 2.88578
171 1 7.727 14.9898 4.1325
173 1 12.1729 14.4618 4.84654
175 1 16.9439 14.6712 5.20519
106 1 18.9531 16.7884 1.91163
108 1 23.8941 16.7605 3.32791
112 1 32.4248 17.4259 3.92091
183 1 3.17502 19.5893 3.00231
185 1 7.67294 19.4174 4.14454
187 1 12.6981 19.0979 4.51048
110 1 28.2009 17.3861 3.6742
197 1 3.61419 23.6247 3.70532
199 1 7.62336 23.5988 4.24981
201 1 11.7931 23.7315 4.50562
120 1 19.0221 21.6614 2.24186
122 1 23.5689 21.2961 3.14592
124 1 27.5121 21.5147 4.08545
126 1 32.3296 21.7901 4.44288
132 1 14.5853 25.5677 1.34804
217 1 16.3494 6.20558 11.0171
134 1 18.9728 25.9308 2.19782
136 1 23.6054 26.0941 2.47663
138 1 27.9995 26.2937 4.07362
140 1 32.689 25.719 4.18468
142 1 4.88443 8.12127 6.74496
144 1 9.50024 8.1221 7.05424
146 1 14.1991 8.03182 7.96932
147 1 16.919 5.70469 4.78795
5848 1 34.1582 23.9032 13.9775
156 1 5.18741 12.8089 6.3761
158 1 9.09843 12.1351 7.34404
160 1 13.9438 12.2625 7.80807
161 1 17.2509 10.6779 4.99458
162 1 18.1879 13.0817 8.83477
163 1 21.3478 10.3714 6.63643
165 1 25.3954 10.4049 6.79033
167 1 30.0281 10.3518 7.26724
172 1 9.87849 16.947 7.43502
177 1 21.3826 14.9225 5.87224
179 1 25.4579 14.6245 6.51335
181 1 29.7472 14.7787 7.71291
253 1 3.0283 19.4965 9.56612
170 1 5.22001 17.2507 6.71318
174 1 14.3151 17.315 7.94262
189 1 17.2464 19.3154 5.05979
191 1 21.23 18.5916 5.87767
193 1 25.0863 19.2938 6.47495
195 1 30.2665 19.4337 7.26366
184 1 5.48522 21.7125 6.55574
186 1 9.98442 21.267 7.78075
188 1 13.826 21.9656 7.84042
203 1 16.4871 23.9775 5.03713
190 1 18.4315 21.587 8.09144
205 1 21.3723 23.8223 5.75724
207 1 25.3146 24.1056 6.5325
209 1 30.046 23.9159 7.20825
10995 1 0.62254 26.5823 6.34322
198 1 5.47952 26.2941 7.20639
200 1 9.2005 26.0006 7.83924
202 1 13.7577 26.6005 8.0403
204 1 18.3822 25.5396 8.90788
353 1 5.87785 6.24014 22.4351
11008 1 0.512103 8.32595 12.6185
348 1 26.5963 26.2866 22.4257
148 1 18.7092 7.82579 8.55979
150 1 23.2042 7.24561 9.46816
152 1 27.6222 7.99649 9.21861
154 1 32.2811 7.95274 10.7497
225 1 2.57227 10.2039 9.10959
227 1 7.24989 10.1729 10.1049
229 1 11.5474 9.30177 11.3134
231 1 16.0192 10.2121 11.536
233 1 20.6109 10.597 11.8872
164 1 22.0376 13.4961 9.63012
235 1 25.0605 10.0097 11.5848
166 1 27.4752 12.7511 10.2307
168 1 32.2273 12.1591 10.8685
239 1 2.38705 14.9562 9.77802
241 1 7.10386 14.504 10.3598
243 1 11.8244 15.5272 10.5272
245 1 16.4126 14.966 11.4596
247 1 20.4297 14.4073 13.0248
255 1 7.36492 19.1712 9.74011
257 1 11.9252 19.987 10.68
176 1 19.1267 16.9224 8.52496
259 1 16.0705 19.5542 11.356
178 1 23.8 16.8902 9.45156
180 1 27.5352 17.1552 9.9902
182 1 32.0439 16.8649 10.5357
34 1 15.0703 16.4945 -4.63893
267 1 1.5017 23.9072 9.3838
269 1 7.16352 23.8462 10.1642
271 1 11.54 23.9933 11.153
273 1 16.027 24.0742 11.4975
192 1 22.5587 21.4984 8.50588
275 1 20.5105 23.4435 12.2058
277 1 24.294 24.1219 12.7861
194 1 26.9332 21.7913 9.80123
196 1 31.8294 21.5594 10.8789
1619 1 20.5185 28.0905 11.523
1471 1 3.78481 28.4079 -2.77748
206 1 23.1835 25.9683 9.45252
208 1 27.3184 26.39 10.2442
210 1 32.1249 26.0992 11.3948
212 1 4.26742 7.4593 12.4606
214 1 8.90969 8.15385 13.8673
216 1 13.6901 8.31887 14.2865
218 1 18.2001 8.74305 14.7305
220 1 22.1659 8.18228 15.4962
1621 1 24.5161 28.1977 12.8651
1541 1 3.25816 28.1015 3.8073
349 1 29.1696 23.9297 19.4193
226 1 4.96421 12.2656 12.7146
295 1 2.07696 10.1003 15.7055
228 1 9.35857 12.2112 13.7798
230 1 13.0534 12.3116 13.8779
232 1 17.8005 12.5371 15.2233
234 1 22.3894 12.9393 15.967
237 1 29.3446 10.0042 13.3333
1477 1 17.4191 28.4172 -1.32873
309 1 2.09415 14.9042 15.6482
242 1 9.0122 17.47 13.2092
246 1 18.0691 17.1248 14.9173
248 1 22.5136 16.7248 16.2297
249 1 24.813 15.2888 13.4124
251 1 29.4362 14.5404 13.7887
5822 1 34.1294 14.9422 14.2513
323 1 1.76819 19.4438 15.4475
240 1 4.41459 16.7612 12.5032
244 1 13.4885 17.0216 14.0685
261 1 20.6874 19.0092 12.4415
263 1 24.838 19.521 13.1747
265 1 29.3839 19.0479 12.9221
346 1 21.8616 26.0675 21.295
254 1 4.1328 21.2774 12.8754
256 1 8.62211 21.3478 13.913
258 1 13.6194 21.5885 14.4959
260 1 17.8119 20.9719 14.4835
262 1 22.3149 21.4307 15.5903
279 1 29.4439 23.7889 13.2666
79 1 22.1378 5.80542 -0.488281
268 1 4.20608 26.0997 12.4531
270 1 8.67438 25.9439 14.109
272 1 13.4555 26.2909 14.399
274 1 17.6686 25.9464 14.8432
276 1 22.4516 26.263 15.2446
282 1 3.91172 8.08179 19.6245
334 1 26.3732 22.0799 22.5282
285 1 11.4866 5.7671 17.447
222 1 26.4416 8.35046 15.6928
5835 1 33.7211 19.3654 13.5782
224 1 31.6052 7.95712 16.9569
297 1 6.58118 10.3598 16.5804
296 1 3.42748 12.5611 19.5308
299 1 10.3501 10.2191 17.1754
301 1 15.2551 10.717 17.8278
303 1 20.3913 10.2242 18.48
305 1 25.0295 10.2644 18.4437
236 1 27.0006 12.5722 16.2621
238 1 31.665 12.383 16.6386
311 1 5.97185 14.7225 16.2124
310 1 3.49485 17.1363 19.2611
313 1 10.6494 15.0939 16.8192
315 1 15.1613 14.6085 17.5085
317 1 19.8672 14.5261 18.3435
319 1 24.5707 14.6619 18.8991
325 1 6.23606 19.3972 16.294
327 1 10.8055 19.2883 17.0984
329 1 15.6222 19.0939 17.8358
331 1 20.1903 19.1424 18.624
333 1 24.3181 19.3398 19.4727
250 1 26.931 17.7514 16.6663
252 1 31.2561 17.0938 16.8935
337 1 1.89628 24.2274 15.8009
324 1 3.47857 21.4094 19.2123
339 1 5.77409 24.1658 16.4956
341 1 11.4725 24.0381 17.8121
343 1 15.4353 23.6937 17.6978
345 1 20.0705 22.9529 18.1858
347 1 24.4657 23.5212 19.3707
264 1 27.0184 21.8906 15.8463
266 1 31.1787 21.1416 16.7541
338 1 4.1225 26.2226 19.6965
332 1 21.9755 21.8767 21.621
278 1 26.9207 26.0832 16.1727
280 1 31.6182 26.4655 16.2909
344 1 17.62 25.6589 20.8511
284 1 8.55244 8.02793 19.9563
286 1 13.2745 8.47438 20.3232
288 1 17.1602 7.77156 20.7098
290 1 21.6165 8.00522 21.9205
330 1 17.9589 21.3451 21.2231
340 1 8.63821 26.5625 20.2505
365 1 1.21667 10.9846 22.2171
1687 1 15.1612 28.5665 17.8623
298 1 8.01623 12.9111 20.1312
300 1 12.7225 12.7335 20.1543
302 1 17.697 12.9559 21.2419
304 1 21.9027 12.7016 21.1263
381 1 5.98817 15.3768 22.4671
307 1 28.7167 10.5014 19.4619
5874 1 34.0435 10.3832 20.3179
379 1 1.09226 15.4682 22.2802
1543 1 7.71878 28.4103 3.61861
141 1 3.40065 5.70813 3.10167
312 1 8.05479 17.3038 19.8095
314 1 12.563 16.9261 20.7924
316 1 17.3644 16.7422 21.29
219 1 20.8963 5.84034 12.4056
321 1 29.0418 15.2122 19.7431
5887 1 33.6591 14.598 19.8063
393 1 1.00197 19.4749 21.6819
395 1 5.60344 19.6925 22.6661
318 1 22.0563 17.1687 21.6775
335 1 29.0301 19.9212 19.8343
5900 1 33.1962 19.3123 19.7529
407 1 0.860711 24.1819 21.5782
293 1 28.3657 5.92964 19.2841
1613 1 7.75199 27.77 10.9959
213 1 7.44039 5.97506 9.91989
1691 1 24.7636 28.0346 18.4656
1475 1 13.0631 28.1309 -1.83577
7161 1 33.324 28.3302 20.2815
1547 1 16.4686 28.1245 5.02261
151 1 25.6475 6.13078 5.608
306 1 26.2204 12.833 22.7477
350 1 31.2518 25.8865 22.9326
1545 1 11.9545 28.2725 4.65225
1483 1 30.5568 28.0061 1.12082
1549 1 21.0391 27.9371 5.84153
1689 1 19.9804 28.2269 17.78
7096 1 34.0257 28.2462 13.969
1623 1 29.2804 28.3446 12.8311
1473 1 8.30859 28.3129 -2.32061
1615 1 11.5472 28.3018 10.8312
308 1 30.7561 12.4404 22.9158
367 1 5.66918 9.88819 22.6185
1413 1 30.832 28.5466 -5.308
352 1 3.2754 7.97403 25.3735
354 1 8.12213 7.90759 26.1859
421 1 0.69206 6.48692 28.123
6134 1 34.1606 10.0769 41.8463
294 1 30.6088 8.33151 22.8455
366 1 2.88448 12.696 25.0836
368 1 7.358 12.3739 26.092
369 1 9.81304 10.5463 23.8118
371 1 13.8843 10.4401 24.1088
373 1 17.8103 10.8003 24.2977
375 1 23.2522 10.285 25.3654
377 1 28.2516 10.3772 26.0741
682 1 20.5566 21.87 51.043
380 1 3.46471 17.4068 25.1113
382 1 7.87008 16.9321 26.4834
385 1 14.4729 14.1979 23.2539
387 1 19.3753 14.545 24.6662
389 1 23.593 14.6033 25.2621
391 1 28.3979 15.3821 26.0226
634 1 5.44559 8.10991 51.0205
397 1 10.811 18.91 23.4024
399 1 15.0329 19.5628 23.9188
384 1 12.6308 16.8844 26.589
401 1 19.5199 19.2607 24.6317
403 1 23.7731 19.4679 25.3167
405 1 28.3237 19.3246 25.9767
5965 1 33.4969 19.2648 26.8203
394 1 2.291 21.9068 24.6912
396 1 8.29543 21.2543 26.3392
648 1 5.21871 12.6679 51.0724
413 1 14.6247 23.9948 24.0989
415 1 19.3451 23.9057 24.5494
417 1 23.8192 23.8399 25.3
419 1 28.4139 23.8607 26.2916
5978 1 33.8354 23.5321 26.1173
408 1 3.28265 25.7848 25.284
410 1 7.7584 25.6163 26.5018
688 1 1.28858 26.5429 50.2251
356 1 12.1295 8.18222 27.1294
1753 1 5.43776 28.1396 23.2589
358 1 16.9374 7.85973 28.0248
360 1 21.0253 8.29908 28.4769
362 1 25.5359 8.44522 28.6145
364 1 30.1253 8.15054 28.9976
5926 1 32.5753 6.01443 26.4882
449 1 1.26114 14.4246 28.1708
437 1 5.40698 9.88001 29.1859
439 1 9.2496 10.5691 29.8088
370 1 11.9898 12.3506 27.0176
372 1 15.9881 12.3908 27.3636
374 1 21.3726 12.3405 28.2246
376 1 25.8456 13.1245 28.7486
5939 1 32.8208 10.0584 26.6207
378 1 30.4587 12.6974 29.4266
5991 1 32.4596 6.24324 32.8033
451 1 5.1687 14.6225 29.385
453 1 10.0281 14.4202 29.4353
386 1 17.2235 17.0034 27.2312
5952 1 32.8831 14.58 26.246
463 1 1.41716 18.6867 29.0595
465 1 5.97424 19.2354 28.7518
467 1 10.7289 18.7533 29.3921
469 1 14.8451 18.8437 30.7836
388 1 21.0915 16.9892 28.3942
390 1 25.6418 16.8701 28.8518
392 1 30.3749 16.8999 29.3501
477 1 0.719191 23.9134 28.646
479 1 5.19336 23.3367 29.3352
481 1 9.91722 23.4756 30.2529
398 1 12.8355 21.4964 26.603
483 1 13.9255 23.6091 30.5671
400 1 16.9465 21.5265 27.6138
402 1 21.2023 21.7091 28.3507
404 1 26.4214 21.4886 28.7283
406 1 30.7928 21.2005 29.1433
336 1 30.8321 21.4584 23.1399
412 1 12.3774 25.9168 26.7918
414 1 16.7917 25.6082 27.8493
416 1 21.5932 26.121 27.8234
418 1 26.2505 26.0653 28.6355
420 1 30.8272 25.768 28.9971
698 1 27.1771 25.6977 49.9394
422 1 2.98386 7.78425 32.267
424 1 7.37285 7.79315 32.8266
426 1 11.1815 7.75588 33.6773
433 1 27.6191 5.80548 31.9218
436 1 2.52095 12.1296 32.2639
438 1 7.09394 12.4996 32.7006
440 1 11.7822 12.4473 33.2701
441 1 13.8851 9.79353 30.6438
443 1 17.9896 10.409 30.8044
445 1 23.5416 10.1868 31.8085
447 1 28.208 10.4379 31.8605
6004 1 32.6433 10.212 32.5836
450 1 2.53556 16.68 32.2082
452 1 7.6317 16.8022 32.4863
455 1 14.4459 14.8927 30.2726
457 1 19.0524 15.3196 31.2029
459 1 23.1787 14.863 32.047
461 1 27.6693 14.9697 32.6407
6017 1 32.3012 14.7295 32.9035
454 1 11.5218 16.943 33.1865
471 1 18.7064 19.3437 31.1853
473 1 23.4366 19.4347 31.7322
475 1 28.5804 20.0935 32.285
6030 1 32.6254 19.4447 33.0776
464 1 2.97222 21.2149 31.8232
466 1 7.43065 20.7514 32.1377
468 1 11.4287 21.3135 33.0007
470 1 15.753 21.5021 34.2612
485 1 19.2906 23.8842 31.173
487 1 23.5065 24.1675 31.5116
489 1 28.1134 24.279 32.4481
6043 1 32.1157 24.1381 32.3476
478 1 2.5458 26.0562 31.7431
480 1 7.05644 26.3046 32.321
482 1 12.6219 25.0314 33.8339
425 1 9.99391 5.87404 29.554
435 1 1.05733 10.1219 28.5378
428 1 15.8957 8.01862 33.6701
430 1 20.5742 8.78889 33.9349
432 1 25.2744 8.38986 35.0029
434 1 29.8 8.21865 35.5124
507 1 4.74689 10.1674 35.8263
509 1 9.40659 10.2002 36.1246
511 1 13.9698 10.3645 36.6478
442 1 16.0513 12.8732 33.3893
444 1 21.3115 12.7349 34.5436
446 1 25.8557 12.1952 34.815
448 1 29.8295 12.3753 35.9242
521 1 4.99834 14.4556 35.5194
523 1 9.71923 14.4218 36.0506
525 1 14.1589 15.0655 36.7855
458 1 20.8291 17.4965 34.7104
462 1 29.6331 17.1327 35.902
535 1 4.39685 18.954 35.1674
537 1 8.77762 18.9787 36.365
539 1 13.4737 19.3092 36.7181
456 1 16.139 16.8173 33.8937
541 1 18.1056 19.3489 37.2677
460 1 25.24 17.2389 34.2617
641 1 23.066 6.21047 48.8081
549 1 5.30017 23.7394 35.0126
553 1 14.1632 23.7454 36.935
472 1 21.1128 21.3203 34.577
474 1 25.4042 21.8002 34.8813
476 1 29.8661 21.8811 35.7767
6108 1 33.3954 24.3949 37.4234
551 1 9.46078 23.608 35.7589
322 1 31.499 16.774 23.413
484 1 16.6381 25.9395 33.385
486 1 20.4196 26.1517 34.4458
488 1 25.1207 26.3832 35.0993
490 1 29.8263 26.7447 35.423
492 1 1.93445 7.67932 38.5025
494 1 6.44576 7.94951 39.2601
496 1 10.696 7.95851 39.6336
498 1 15.4526 8.29577 40.1021
500 1 20.2793 7.87703 39.8218
359 1 19.3438 6.39373 24.6629
504 1 31.5733 7.24049 40.1694
506 1 2.22559 12.1953 38.5434
508 1 6.72096 12.6582 38.6588
510 1 11.4736 12.4189 39.3937
512 1 15.598 12.3052 40.2898
513 1 17.9364 10.8803 37.0982
515 1 22.9617 10.06 37.5848
514 1 20.342 12.5239 40.7031
517 1 27.0022 10.2149 38.9119
518 1 30.8813 12.5645 39.5634
6069 1 33.81 10.103 37.0817
527 1 18.2768 14.7096 37.0851
529 1 23.0294 14.6135 37.545
531 1 27.6827 14.8856 38.3708
6082 1 33.1329 14.6323 37.2149
520 1 2.05846 16.3062 37.855
522 1 6.48051 17.2057 39.0239
524 1 11.1314 17.119 38.6906
526 1 15.6276 17.0829 40.4509
543 1 22.6555 19.3162 37.5869
528 1 20.4833 17.2093 40.4901
545 1 27.003 19.7044 38.6642
532 1 30.94 17.1202 39.6111
6095 1 33.1238 19.0451 36.7185
534 1 2.34895 21.8616 37.1855
536 1 6.70341 21.8532 38.0714
538 1 11.3358 21.9014 38.9125
555 1 18.7144 23.7451 36.9385
542 1 20.4364 21.5455 40.64
559 1 27.6293 23.7511 38.3431
546 1 30.8407 21.7582 39.7492
548 1 2.27344 26.309 38.168
550 1 6.4957 25.5379 38.3378
552 1 10.9208 26.3082 39.3543
554 1 15.7001 26.2753 39.5668
411 1 10.9229 23.6424 23.1569
557 1 23.325 23.6256 37.8031
560 1 31.2741 25.8155 40.1654
499 1 18.284 5.62846 36.1149
562 1 1.2276 7.88843 43.912
674 1 0.67999 21.4971 50.3806
502 1 24.2245 7.93462 41.0293
577 1 3.76924 10.0321 41.1819
576 1 1.7421 12.5351 44.5949
579 1 8.56013 10.1725 42.0843
581 1 12.9992 9.75399 43.1496
583 1 17.5139 10.2303 43.4974
585 1 22.194 10.4615 43.4187
516 1 24.8384 12.7343 41.5022
587 1 28.5345 9.84433 42.5831
590 1 2.13035 17.5654 43.9189
591 1 3.98422 14.1921 41.3869
593 1 8.74909 14.8719 41.8098
595 1 12.8647 15.0833 41.8893
597 1 17.3612 14.859 43.3121
601 1 29.073 14.5055 42.7262
700 1 33.5321 26.5119 48.5318
605 1 4.4685 20.0988 40.9463
607 1 9.09552 19.4423 41.0676
609 1 13.4589 19.5473 42.7562
611 1 18.1001 19.3832 42.821
613 1 21.9512 19.3734 44.3463
530 1 24.9676 16.7663 40.8285
615 1 28.2229 19.298 42.7527
619 1 3.94417 24.3573 42.0736
621 1 8.59435 23.9421 42.2452
540 1 15.8182 21.5266 39.5414
623 1 13.1335 24.0434 42.7561
625 1 17.9699 23.9971 43.0362
544 1 25.0419 21.5335 41.583
629 1 27.8324 24.1035 42.6406
635 1 7.46224 5.79206 48.4067
2039 1 17.1458 27.8143 49.8062
556 1 20.3308 26.6857 40.0738
686 1 33.7069 21.9221 48.4551
558 1 24.7904 26.1193 41.1337
660 1 1.84924 17.1768 50.423
564 1 6.05102 8.15424 44.5827
566 1 10.6509 6.95613 45.8846
568 1 14.7963 8.11376 46.0321
570 1 19.6607 7.7276 46.4988
572 1 25.7287 7.93421 45.3847
7356 1 33.9851 28.392 37.1407
574 1 31.8094 7.61521 44.8123
647 1 3.49747 9.98121 47.656
578 1 6.4676 12.1712 45.1316
580 1 11.0475 12.41 45.3396
582 1 15.4899 12.9357 46.4728
584 1 19.7241 12.4473 46.2866
586 1 26.0434 12.621 45.0322
657 1 29.0284 10.6571 46.9486
588 1 31.8523 12.3064 44.6263
592 1 6.57337 16.8763 44.0113
599 1 22.1702 14.9247 44.1135
671 1 29.3367 14.8884 47.4414
594 1 10.4623 16.9405 44.744
596 1 15.0009 16.7226 45.9633
598 1 19.3703 17.594 46.8588
600 1 26.0158 17.1495 45.2882
685 1 29.0198 18.9909 46.6795
602 1 32.0113 16.7474 44.1729
604 1 1.59268 22.0689 44.1955
606 1 6.28568 21.0029 44.2045
608 1 10.6036 21.7142 45.6517
610 1 15.2592 21.475 45.9289
627 1 22.0583 23.9956 44.2896
612 1 19.8421 21.5161 46.7645
614 1 25.4006 21.8535 46.0874
699 1 29.5676 23.6653 46.3026
616 1 31.9009 21.6027 44.3219
618 1 1.86219 26.2288 44.4656
620 1 6.45799 26.3077 44.7944
622 1 11.0587 26.3851 45.4311
624 1 14.9951 26.0849 46.0084
626 1 19.2453 26.3122 46.7777
628 1 25.9731 26.0461 45.6115
2035 1 8.14253 28.3034 48.3839
630 1 31.7285 26.2973 44.3257
654 1 20.6688 13.0936 50.9363
2043 1 29.6102 27.6692 47.971
639 1 17.4241 6.15325 49.417
567 1 13.0796 5.70837 43.0905
642 1 26.8907 8.0032 50.0474
644 1 32.677 8.19386 48.7649
646 1 0.781519 12.7456 50.6478
1823 1 5.39345 27.934 28.9821
649 1 8.2938 9.97272 47.6933
651 1 12.6298 9.9109 48.914
653 1 17.1757 10.0791 49.5087
1761 1 24.15 28.3956 24.6164
655 1 23.1214 10.2861 48.1093
656 1 26.8785 12.5835 49.6442
658 1 33.0035 12.4311 48.7023
632 1 0.579214 7.85215 50.5972
661 1 3.44384 14.6984 47.474
427 1 13.9474 6.02019 29.9198
663 1 8.02292 14.8701 47.7735
665 1 11.9618 14.7642 48.7381
667 1 17.3472 14.4648 49.4966
669 1 23.0032 14.9982 47.9691
670 1 26.8716 16.8577 49.8317
672 1 32.7754 17.1343 48.8879
675 1 3.6984 19.3923 47.6113
677 1 7.89522 19.4374 48.444
679 1 12.2546 19.5441 48.4424
681 1 16.9641 19.4384 49.0687
683 1 23.2421 19.5261 49.1533
689 1 3.64168 24.0792 47.8549
7291 1 32.283 28.0687 32.6551
691 1 8.25922 23.8883 48.1072
383 1 9.71601 14.4741 23.4004
693 1 12.9602 24.3001 48.7295
695 1 16.9094 23.8137 49.8215
697 1 23.0161 24.3205 48.7494
684 1 27.1251 21.9276 49.9354
423 1 5.17334 5.90534 29.1365
1755 1 9.89939 28.2574 23.3397
1757 1 15.448 28.1254 24.1398
431 1 23.8205 6.27684 31.3726
1827 1 14.7771 27.7118 30.4445
2041 1 22.9821 28.2437 48.4249
409 1 6.32446 23.5819 23.54
1831 1 23.2607 28.0411 31.8655
1825 1 10.0321 27.704 30.0129
1971 1 22.6271 27.9838 43.9111
1759 1 19.3108 28.0683 24.555
1963 1 4.02686 28.2223 41.0956
357 1 14.5205 5.80361 23.8129
1895 1 9.65493 28.3515 35.6163
1893 1 5.00764 28.383 35.0678
1967 1 13.1759 28.3747 42.8782
503 1 26.5839 5.82067 37.8785
633 1 3.00865 6.07854 47.6816
769 1 30.9656 23.4124 51.0093
676 1 5.42086 21.1149 51.0492
320 1 26.7747 17.5983 22.9331
662 1 5.62529 16.4902 51.1582
636 1 9.88232 8.02128 51.5826
638 1 14.4794 8.41804 52.45
702 1 0.754376 8.56031 56.9523
712 1 28.1971 8.13493 54.4607
1100 1 20.8248 21.4969 79.0662
714 1 33.6357 7.84267 52.8604
717 1 2.82865 10.6378 54.2207
719 1 7.1595 10.545 54.6021
954 1 0.671909 22.0607 73.8952
652 1 14.2608 12.6203 52.3213
723 1 18.3622 10.0299 54.8458
725 1 24.329 10.3952 52.6888
726 1 28.0141 12.5887 54.3663
727 1 30.2391 11.0074 51.4029
728 1 34.0508 12.5312 53.4687
731 1 2.86786 15.2957 53.9579
664 1 10.0805 16.8781 51.5062
666 1 14.3969 16.8901 51.9433
737 1 18.0269 15.027 53.4738
739 1 24.4479 14.9862 52.5951
741 1 30.881 15.3592 51.6842
745 1 3.29713 19.8182 54.0663
747 1 7.71443 19.6436 54.3297
751 1 17.5629 19.3865 53.6445
847 1 13.9639 5.89626 63.988
753 1 24.6044 19.4108 52.7331
740 1 27.3722 17.0484 53.7492
755 1 30.5611 19.2543 51.0925
742 1 33.8367 17.1781 53.5034
759 1 2.66117 24.5914 53.6487
761 1 7.36936 23.4671 54.3965
678 1 10.0971 22.1562 51.5345
680 1 13.9368 21.68 51.9947
765 1 17.6627 24.027 53.7313
843 1 1.77614 5.86121 66.7377
767 1 23.8504 24.1631 53.1561
1063 1 33.5712 6.08669 75.6058
692 1 10.226 26.8858 51.347
694 1 13.9072 26.4011 52.5637
696 1 20.5728 26.5289 51.1762
915 1 8.40655 5.99798 69.4215
704 1 5.19912 8.18454 57.2172
706 1 9.35915 8.17114 57.8461
708 1 15.1527 8.0342 57.2003
912 1 0.695134 8.11509 74.1208
710 1 21.6864 7.79659 55.5936
705 1 7.87091 5.72036 54.1459
1091 1 33.4682 14.562 76.048
2323 1 33.3498 28.4471 65.2221
718 1 4.32769 13.2018 57.1954
720 1 9.26294 12.7161 58.405
721 1 11.5546 10.3219 55.3103
722 1 15.625 12.6243 57.6393
724 1 21.5645 12.5771 55.3253
795 1 24.5549 10.9208 57.3532
797 1 31.0355 10.5766 55.7849
733 1 7.51448 15.0755 54.4667
735 1 12.2194 14.8396 55.2769
736 1 14.8918 17.2786 56.6354
809 1 25.0651 14.7898 57.2735
811 1 31.5427 15.2239 56.2449
732 1 5.11137 17.4242 57.4358
734 1 9.58494 17.4552 58.0108
749 1 12.3834 19.5106 54.7567
821 1 18.8916 18.8169 58.4293
738 1 21.5423 17.1261 55.2339
823 1 24.8477 19.6328 57.0346
825 1 31.374 19.3777 55.5909
1118 1 31.4475 26.013 78.6992
746 1 4.71269 21.7657 56.9046
748 1 9.4308 21.5154 58.2477
763 1 12.1108 24.214 55.0683
750 1 15.26 21.6295 57.1132
752 1 21.4202 21.1485 55.5565
754 1 27.5427 21.7938 53.8467
839 1 30.8413 24.0035 56.1935
760 1 4.35471 26.2025 57.0562
762 1 8.94689 26.1829 57.8139
1105 1 33.8117 19.1355 75.4512
764 1 15.1845 26.1362 57.0793
766 1 21.4221 26.036 55.74
837 1 24.8423 23.3844 57.4376
768 1 28.1867 25.6269 53.8789
853 1 31.8405 5.93956 60.3978
1119 1 33.965 23.8876 75.5576
756 1 33.8219 21.8087 53.36
778 1 16.8484 8.05315 61.0586
780 1 22.2599 7.83331 60.2456
782 1 28.8005 7.59744 58.713
787 1 2.68739 10.6012 60.1781
789 1 6.53573 10.2224 61.0218
791 1 12.8581 10.1282 59.9734
793 1 19.8367 10.447 58.9267
792 1 16.585 12.7337 61.2837
794 1 22.6576 12.644 60.5726
796 1 28.4892 12.3026 58.9678
867 1 31.6809 10.4344 60.4184
801 1 2.09266 15.6417 60.4711
803 1 6.82109 14.9293 61.0201
805 1 12.5572 14.563 59.7751
807 1 19.439 14.9818 57.9945
808 1 22.6232 17.2229 60.5602
879 1 25.8417 14.5265 61.8803
810 1 28.1047 17.3762 58.5627
881 1 31.8345 15.1891 60.3782
815 1 2.20021 19.9528 60.467
817 1 6.68092 19.6478 60.4449
819 1 13.2438 19.3083 59.5082
806 1 16.3642 16.8616 61.1726
895 1 32.3185 19.1698 60.015
829 1 2.08965 24.0115 60.1781
831 1 6.68831 24.2048 60.5855
833 1 12.5796 24.0524 59.5117
820 1 16.1159 21.3605 61.3051
835 1 18.7384 23.5245 58.2676
822 1 22.2476 21.7841 60.2048
824 1 28.4833 21.3009 58.7645
909 1 31.8826 23.7321 60.6475
1059 1 22.8431 5.62901 76.2922
832 1 9.84165 26.7341 62.3986
834 1 16.3775 26.1093 61.2063
1040 1 7.68283 26.3776 77.4225
836 1 22.6442 26.1216 60.3166
838 1 28.2696 26.211 58.818
770 1 33.5928 26.0724 53.2635
774 1 3.83418 8.37694 63.5918
776 1 10.0482 7.83134 62.1129
1038 1 1.61023 26.4168 79.0038
850 1 23.952 8.07072 64.3735
852 1 29.5141 7.67426 63.3751
788 1 3.30815 13.0938 63.4175
859 1 7.68799 10.4494 65.5141
790 1 9.93642 12.41 62.4782
861 1 14.481 10.0966 64.4678
863 1 20.2778 10.6673 63.2002
864 1 24.0165 12.5272 64.9316
865 1 25.7779 10.1288 61.8117
866 1 29.2825 12.9195 63.5631
804 1 10.3899 17.2527 62.7668
875 1 13.7041 14.7263 64.0151
877 1 20.0472 14.4163 63.0969
880 1 29.4683 16.9957 63.0366
802 1 4.251 17.3961 63.9384
887 1 7.63808 19.3511 66.107
889 1 13.5649 19.2942 63.7046
891 1 19.534 18.9971 62.9897
878 1 23.391 17.3486 64.5464
893 1 25.9366 19.3832 61.3028
1033 1 32.5343 20.1395 64.2892
816 1 4.3886 22.0559 63.8958
818 1 9.68989 21.011 62.2365
901 1 7.68512 24.0279 65.3495
903 1 13.1177 23.7572 64.0823
905 1 19.521 23.6564 62.9502
892 1 23.4858 21.505 64.7824
907 1 25.9162 23.9227 61.7462
894 1 29.3608 22.4222 63.7582
830 1 4.31111 26.2465 63.8049
781 1 25.2369 6.86536 56.8331
906 1 23.7917 26.1439 65.2574
908 1 29.6075 26.28 63.2048
2251 1 25.9215 28.0183 62.3386
844 1 5.27549 8.4049 68.3391
846 1 10.5678 8.25567 66.4008
848 1 17.7886 7.69426 66.069
987 1 15.7585 6.18017 72.3872
1104 1 31.5964 21.3997 78.6945
922 1 30.8476 8.21038 67.4758
857 1 1.40834 10.4311 66.6794
858 1 5.18312 12.7648 67.7344
860 1 11.3013 12.5591 67.09
931 1 15.0908 9.81855 69.1527
862 1 17.0983 12.615 65.8961
933 1 20.743 9.91966 67.159
935 1 27.2758 10.2133 66.4108
937 1 33.0875 10.4639 65.0311
936 1 30.853 12.6707 67.5059
871 1 1.2537 15.03 66.5462
872 1 5.14132 16.955 68.5867
873 1 7.8278 15.1075 65.3377
945 1 15.1017 14.6262 69.0874
876 1 17.2695 17.106 65.7765
947 1 21.2258 15.2459 67.4888
949 1 26.8805 14.6698 65.9904
951 1 33.6146 14.8738 64.2703
885 1 1.91775 19.5004 66.3367
874 1 11.5417 17.223 67.3715
959 1 14.8931 19.1252 67.84
961 1 20.3058 19.2973 67.4355
963 1 27.2137 19.6147 65.6219
950 1 30.5963 17.2978 67.4708
899 1 1.07112 24.1052 66.366
886 1 5.03553 21.7104 68.1294
888 1 11.1336 21.4288 66.6949
973 1 14.6756 24.292 68.2703
890 1 17.9081 21.6682 65.5311
975 1 20.692 24.0829 67.2206
977 1 26.9711 24.2116 66.2818
964 1 33.257 24.4886 64.9252
1035 1 30.8352 22.2185 68.072
900 1 4.90365 26.3515 68.3945
902 1 11.4313 26.1982 66.6787
904 1 16.849 26.1308 65.7079
709 1 17.6819 5.79819 53.8853
978 1 31.0297 26.1161 68.7927
1102 1 27.214 21.5613 77.5862
2383 1 3.62945 28.4463 75.2407
916 1 12.1212 8.05533 71.1998
918 1 18.4298 8.43482 70.4667
2457 1 17.1456 28.2919 77.4421
920 1 24.2072 7.42856 68.7142
992 1 31.9717 7.95945 71.948
927 1 2.19515 9.94638 71.1769
929 1 9.0835 10.7555 69.6732
930 1 12.3538 13.1297 71.3241
932 1 18.8594 12.4793 70.1846
1003 1 21.8703 10.4722 71.7096
934 1 24.4418 11.9916 68.9933
1005 1 28.3294 10.2866 70.7143
941 1 2.6886 14.3538 71.0698
943 1 8.283 15.0121 69.7349
944 1 12.6783 17.5058 71.4848
946 1 18.4394 17.0087 69.8767
1017 1 22.1734 14.6166 71.4764
1019 1 27.9368 14.7048 69.9551
955 1 2.88294 19.3909 70.7803
942 1 6.48021 17.5703 72.9391
957 1 8.80721 19.2939 70.291
1031 1 21.7846 19.0935 72.0106
948 1 24.985 17.3676 68.8753
1020 1 28.0392 19.524 70.7185
969 1 2.89754 24.0482 70.8361
956 1 6.15394 22.2431 71.6577
971 1 8.80798 24.0794 69.8134
958 1 12.7247 21.5294 71.0381
960 1 17.7736 21.6092 69.9371
1045 1 21.586 23.8465 71.6738
962 1 24.343 21.5861 68.9343
1047 1 27.8957 24.1678 71.2006
2389 1 22.3758 28.1011 72.3736
972 1 12.2221 26.168 71.1518
974 1 18.7349 26.2067 70.0526
913 1 2.45556 6.07167 71.3209
976 1 24.1804 26.1206 69.5123
2181 1 25.4136 28.0529 56.8919
983 1 3.60557 6.22419 75.5986
914 1 6.22544 8.99312 72.8865
986 1 13.697 7.44926 75.6262
1021 1 33.8235 14.57 68.9685
988 1 19.5426 8.50281 73.905
990 1 25.4025 8.32523 73.2182
2105 1 7.79714 28.5069 54.9998
1111 1 11.2604 23.7127 78.5387
997 1 3.82028 10.3167 75.4354
928 1 5.89692 12.9204 72.2753
999 1 9.82038 10.5729 73.6319
1000 1 13.4543 12.8244 75.7266
1001 1 15.37 10.3207 72.905
1002 1 19.4141 12.8767 74.6046
1004 1 25.346 12.9367 73.2945
1075 1 29.3728 10.3588 74.9936
1006 1 31.8095 12.71 72.1324
2111 1 24.6476 28.1269 52.9864
1011 1 3.96381 15.0138 75.5674
1013 1 9.80323 15.0643 74.0611
1015 1 15.9686 14.4982 73.2945
1089 1 29.5067 14.8574 75.6314
1022 1 31.4836 17.0813 72.0492
1025 1 4.33909 19.7451 76.0544
1027 1 9.95809 19.6692 74.4414
1029 1 15.9091 19.2288 73.2221
1016 1 19.3529 17.2453 74.4604
1018 1 25.6833 16.9982 73.5417
1103 1 29.7863 19.1119 75.0185
1039 1 4.29719 23.6834 75.2726
1041 1 9.7482 23.7311 74.371
1028 1 13.5316 21.7363 76.0199
1043 1 15.805 23.8185 72.6972
1030 1 19.5299 21.7364 74.502
1032 1 25.6264 21.2467 73.3305
1117 1 30.2624 23.7788 75.2015
1034 1 31.7845 21.8239 72.0912
2113 1 30.6886 28.0286 51.3601
970 1 6.25575 26.5768 72.9039
1042 1 13.4801 25.6557 76.0002
1044 1 19.6172 25.8568 74.3674
1046 1 25.2651 25.9331 74.0355
985 1 9.57427 5.92617 73.9403
1048 1 32.1655 26.0853 72.5355
982 1 2.05121 8.03159 78.6593
984 1 7.70407 7.81673 76.7843
1115 1 23.0324 23.2624 75.9995
1057 1 18.1433 6.11668 76.5156
779 1 18.766 6.19933 57.5644
1060 1 26.5215 7.96388 77.8017
1062 1 31.0884 7.4292 78.1475
996 1 1.41659 12.7032 78.2888
998 1 7.81922 12.5629 76.6382
1069 1 11.2453 10.2338 78.1245
1071 1 16.9126 10.4609 77.4356
1072 1 20.4569 12.7595 79.2701
1073 1 22.9949 10.5114 76.1813
1074 1 26.5273 12.4989 77.8229
1077 1 33.6782 10.1448 75.5093
1076 1 30.7204 12.1755 78.0354
1083 1 11.2969 14.7801 78.6528
1085 1 17.0389 14.9515 77.2847
1087 1 22.9532 14.9003 76.8927
1090 1 31.6228 16.8283 78.4268
1116 1 27.4099 26.2355 77.9687
1010 1 1.79998 17.2529 78.3351
1012 1 7.51549 16.9683 77.4316
1097 1 11.0111 19.7924 78.6848
1014 1 13.692 17.3289 75.7458
1099 1 16.84 19.4091 77.4646
1086 1 20.6802 17.3733 79.1649
1101 1 23.3145 19.3676 76.0457
1088 1 26.8337 17.1536 78.2199
1024 1 1.46859 21.9425 78.5885
1026 1 7.4494 21.7804 77.3501
923 1 33.1532 5.65565 64.8193
1113 1 17.5655 24.0457 77.8715
2385 1 9.9823 28.0826 74.0307
668 1 20.4852 17.3044 51.2428