ITEM: TIMESTEP
258000
ITEM: NUMBER OF ATOMS
16000
ITEM: BOX BOUNDS pp pp pp
3.7194800212168388e-01 1.0182805199788328e+02
5.7639176336051108e+00 9.6436082366390082e+01
-5.1803280125369184e+00 1.0738032801253416e+02
ITEM: ATOMS id type x y z
5848 1 33.7554 23.4857 13.4999
6 1 14.78 8.20661 -4.89736
145 1 11.7987 6.2116 4.42947
8 1 19.4858 8.19042 -3.75414
10 1 24.1929 7.84839 -3.34307
12 1 28.7322 8.11892 -2.46539
85 1 3.47347 10.8583 -2.76481
87 1 8.08761 10.1961 -2.23328
20 1 14.648 13.0705 -4.76668
89 1 13.0663 10.601 -1.72748
22 1 19.3292 12.5301 -4.10517
24 1 24.0164 13.1482 -3.56697
26 1 28.5806 12.8913 -2.10262
28 1 33.4033 12.9262 -1.88179
99 1 3.24713 14.8809 -3.15585
101 1 8.32678 14.5859 -2.25226
103 1 12.7308 15.1649 -1.46512
40 1 28.3639 17.1183 -2.65062
42 1 33.1473 16.9974 -2.41107
113 1 3.52519 19.5418 -3.05662
115 1 8.29901 19.111 -2.62033
18 1 10.7175 13.0996 -4.96706
34 1 14.9888 16.8884 -4.36408
36 1 19.6845 16.4168 -3.53061
38 1 24.0475 17.1175 -3.12541
127 1 3.54901 23.8383 -2.81823
129 1 8.18764 23.8466 -2.08781
153 1 29.7574 6.11455 7.17673
48 1 15.0373 21.545 -4.48215
131 1 12.2283 24.0272 -1.47433
50 1 19.688 21.2452 -3.64546
52 1 23.8433 21.609 -2.97221
54 1 28.4003 21.6093 -2.70227
56 1 32.8488 21.571 -2.57601
10982 1 0.553876 21.9389 5.94251
1547 1 16.6612 28.3212 5.51708
215 1 10.9623 6.01061 11.0373
62 1 14.8868 26.3306 -4.70498
64 1 19.2349 25.9317 -3.68837
66 1 24.2737 26.3571 -3.13698
68 1 28.4157 26.4236 -2.72484
70 1 33.457 26.3396 -2.53357
10878 1 1.16602 7.78262 -0.074741
72 1 5.90233 7.39776 0.598332
74 1 9.83813 8.86633 1.39176
76 1 14.434 8.22655 1.92753
77 1 16.8346 6.16749 -1.22146
75 1 12.5871 6.00608 -1.36138
14 1 33.432 8.17034 -2.12339
5796 1 33.774 5.97006 14.0135
10891 1 1.1617 12.7161 -0.0505894
86 1 5.38107 12.4763 1.07917
88 1 9.93681 12.6907 1.39853
91 1 17.6874 10.7243 -1.22853
93 1 21.8067 10.6516 -0.505147
95 1 25.9729 10.6958 0.295335
97 1 30.6178 10.3179 1.28686
10904 1 0.583312 17.117 -0.372373
102 1 10.6607 17.1915 1.07219
105 1 16.6275 14.9802 -1.13151
107 1 20.933 14.6742 -0.358818
109 1 25.9125 15.5503 -0.00845369
111 1 32.042 14.9822 1.74713
100 1 5.3915 17.1071 0.49185
117 1 12.6269 19.7175 -1.36357
119 1 16.7286 19.05 -1.03891
121 1 21.1565 19.3214 0.00478479
123 1 25.8284 19.5931 0.609952
125 1 30.4249 19.3931 0.956837
10917 1 0.745984 21.6695 -0.689959
114 1 5.22024 21.4148 0.286149
116 1 9.51588 21.5835 1.43376
118 1 14.3522 21.8813 2.05353
133 1 16.9576 24.1584 -1.07431
135 1 21.3618 23.9626 -0.204595
137 1 26.0737 23.9119 0.487213
139 1 30.9044 23.8679 0.561655
10930 1 0.541028 26.0932 0.129289
128 1 5.18096 26.2829 0.588216
130 1 9.2466 26.0787 0.947104
132 1 14.7826 26.2875 1.63279
1623 1 29.6843 28.2325 13.7847
217 1 15.6222 5.86283 11.7417
326 1 8.01929 21.8179 20.0711
367 1 5.17717 9.97235 22.7911
350 1 31.032 26.3939 22.9304
78 1 19.208 7.78987 2.39283
80 1 23.3528 8.18485 2.89305
82 1 27.9568 8.05496 3.58344
84 1 32.4266 7.52474 4.44164
155 1 2.54466 9.64291 3.19873
157 1 6.70252 10.489 3.87955
90 1 14.7406 12.9411 2.04322
159 1 12.0244 10.7745 5.11345
92 1 19.2522 12.2113 2.12928
161 1 16.8703 10.6444 5.33418
94 1 22.9756 12.8363 2.60963
96 1 28.681 12.7823 4.01643
98 1 33.1317 12.145 4.78574
169 1 2.88328 15.3493 2.7899
171 1 7.24217 15.1057 3.67984
173 1 12.0825 14.8186 4.03696
106 1 18.3634 16.7973 2.79364
175 1 16.7682 14.6068 5.45855
112 1 33.0431 16.9031 5.1349
183 1 2.77118 19.6345 2.91705
185 1 7.4178 19.2419 3.94859
104 1 14.3829 17.3012 2.45625
187 1 12.1562 19.6839 4.65991
189 1 16.5752 19.2429 5.39906
108 1 23.0242 17.1631 3.06244
110 1 28.4934 16.6739 3.42462
197 1 2.7782 24.3079 3.24628
199 1 7.38116 24.0264 3.79184
201 1 11.5361 24.2912 4.78788
120 1 18.4255 21.4535 2.51085
203 1 16.0759 24.0407 5.22293
122 1 23.0586 21.8141 3.46263
124 1 28.4067 22.192 3.39242
126 1 32.4461 21.3078 3.66601
5822 1 33.7721 14.798 14.1481
213 1 7.10952 6.1864 9.93846
134 1 19.1921 26.2483 2.36607
136 1 23.8183 26.2562 2.87106
138 1 28.1869 26.6975 3.60209
140 1 32.6694 26.1252 3.58688
142 1 5.27646 8.39163 6.88665
144 1 9.41523 8.2643 6.9919
146 1 13.8282 8.27007 8.14394
71 1 3.63028 6.04841 -2.6793
27 1 31.2583 11.0896 -4.93291
351 1 1.00364 5.92794 21.7712
143 1 7.2989 5.71071 3.55177
211 1 2.53713 5.96788 8.78314
156 1 5.08601 12.6727 6.73441
158 1 9.09284 12.8115 7.22876
160 1 13.646 12.953 8.04312
162 1 18.2358 12.4198 8.37072
163 1 20.7276 10.4048 6.17589
165 1 25.4538 10.1382 6.3884
167 1 29.8443 10.1787 7.54248
176 1 18.9312 17.3269 8.54554
177 1 21.1726 15.3601 5.96527
179 1 25.7934 14.8297 5.97283
181 1 30.1556 14.4446 7.3411
170 1 4.80129 17.4498 6.34455
172 1 9.58891 17.0493 7.15464
174 1 14.2228 17.4995 8.12229
191 1 21.182 19.269 5.77568
193 1 25.7159 19.8805 6.57507
195 1 29.6173 19.5159 7.08516
184 1 4.5865 21.8652 6.76907
186 1 9.11058 21.6049 7.52419
188 1 13.4076 21.9819 8.55581
190 1 18.7125 22.1298 8.49314
205 1 20.9123 23.9902 6.01398
207 1 25.806 23.8268 6.49853
209 1 29.8242 23.9944 6.27065
1553 1 30.5865 28.1382 7.10324
287 1 15.125 6.07194 17.8057
198 1 4.58341 26.5758 6.87334
200 1 8.8833 25.8306 8.36598
202 1 14.0357 26.4293 8.10594
204 1 18.0056 26.2158 8.58651
223 1 29.3553 5.93456 13.8121
212 1 3.50453 7.70538 12.866
1475 1 12.5827 28.298 -1.32344
348 1 26.4317 25.8466 22.2497
148 1 18.1312 7.9963 8.94145
10943 1 0.717094 8.23089 6.15042
221 1 24.8648 6.17802 12.1638
150 1 22.8456 8.26164 9.3388
152 1 27.5441 7.99638 9.75759
154 1 32.2301 7.80515 10.842
225 1 1.73051 10.5436 9.5053
227 1 7.69692 10.8478 10.3594
229 1 11.7095 10.5823 10.826
231 1 15.7648 10.2576 11.9868
233 1 20.66 10.4429 11.738
164 1 23.0823 12.8849 9.19272
166 1 27.6541 13.2728 10.1325
239 1 2.13594 15.1831 9.55086
241 1 6.44559 14.7234 9.85214
243 1 11.5632 15.0159 10.8064
245 1 16.0256 14.873 11.4689
247 1 20.7585 14.4577 11.5878
178 1 23.6569 17.5066 9.10343
168 1 31.9146 12.2132 11.2866
253 1 2.54125 19.3185 9.04139
255 1 6.80962 19.1087 10.3152
257 1 10.9926 19.2218 11.017
259 1 15.7673 19.5932 11.1074
261 1 20.4539 19.3012 11.8377
180 1 27.4169 17.2881 9.80467
182 1 32.0126 16.8815 10.0059
267 1 1.87671 23.7664 9.83089
269 1 6.50731 23.7972 10.5439
271 1 11.3757 23.8711 11.103
273 1 15.9074 23.6973 11.7591
192 1 23.1865 21.8275 9.86958
275 1 20.3042 24.1342 11.7212
194 1 27.1589 22.2587 9.7288
196 1 31.7333 21.5837 10.0162
206 1 23.2186 26.7116 9.10486
208 1 27.9899 26.5882 9.86111
210 1 32.1729 26.222 10.966
214 1 8.61024 8.75952 13.856
216 1 13.3023 8.12472 14.3561
218 1 17.8972 7.52797 15.5001
220 1 22.3333 8.11783 15.6046
222 1 26.8408 7.84212 16.0646
295 1 1.73654 10.1962 15.8495
226 1 4.5165 12.7165 12.8214
228 1 9.06775 12.6313 13.9001
230 1 13.4131 12.7207 14.546
232 1 18.2053 12.6666 14.9857
234 1 22.4248 12.8645 15.6649
235 1 24.9473 10.5666 12.5274
237 1 29.2643 10.62 13.3552
309 1 1.42337 14.8389 16.0866
240 1 4.31592 17.4414 13.1113
249 1 24.9105 15.0299 12.8171
251 1 29.4584 14.5611 13.1312
291 1 24.1891 5.83821 18.9155
323 1 1.53654 20.0605 15.826
242 1 8.26123 17.1237 13.2312
244 1 12.8529 17.3404 14.1969
246 1 17.6603 17.199 14.9697
248 1 21.9314 17.4603 15.5689
263 1 25.022 19.6397 12.9316
265 1 28.9278 19.1141 13.0809
5835 1 33.4594 18.7776 13.0872
337 1 1.79343 23.8886 16.3193
254 1 4.48477 21.6891 12.9365
256 1 8.43104 21.8568 13.8204
258 1 13.0313 21.5189 14.5407
260 1 17.9863 21.8012 15.063
262 1 21.954 22.2681 15.073
277 1 25.0491 24.3454 12.4599
279 1 29.5369 23.8593 13.3676
381 1 5.0509 14.6525 22.8086
346 1 21.9724 26.2545 21.6268
268 1 4.32378 26.0708 13.0726
270 1 8.77742 26.4373 13.917
272 1 13.1277 26.2694 14.4
274 1 18.0311 26.3906 14.8404
276 1 22.3284 26.5685 15.4807
344 1 17.114 26.5415 20.9603
79 1 21.3695 6.01662 -0.138886
342 1 12.4715 26.3408 20.9849
5861 1 32.2993 5.72031 20.9778
332 1 22.0095 21.8054 22.0203
330 1 17.218 21.9011 21.1765
224 1 31.4523 8.36723 17.0333
296 1 3.96483 12.2359 19.0172
297 1 5.88405 10.1148 16.4948
299 1 10.9053 10.6071 17.5929
301 1 15.4444 10.698 17.9974
303 1 19.7539 10.6906 18.2288
305 1 24.2219 10.5566 19.1609
236 1 26.8814 12.5048 16.0123
238 1 31.5312 12.5362 16.8755
310 1 3.53265 17.6386 19.2365
311 1 6.17276 15.3068 16.5041
313 1 10.6096 15.2534 16.9217
315 1 15.4245 14.7542 18.2326
317 1 19.8608 15.8011 18.2757
319 1 24.3931 15.3644 18.9259
321 1 28.8284 14.7764 19.6975
325 1 5.76188 19.3927 16.8187
327 1 10.5395 19.9429 17.1712
329 1 15.5063 19.3064 17.2412
331 1 20.2667 19.4764 18.2124
333 1 24.2677 19.3765 19.2473
250 1 26.5212 17.2488 15.7632
335 1 29.1206 19.6219 19.2784
252 1 31.1319 16.8723 16.8192
339 1 6.4131 24.4204 16.7776
341 1 10.7595 24.1032 17.0854
343 1 15.1997 23.9055 17.8685
345 1 19.8592 24.085 18.1144
347 1 24.4781 23.8435 18.678
264 1 26.719 22.0456 16.2058
349 1 29.1957 23.5086 19.4898
266 1 31.419 21.5002 15.8739
338 1 3.65628 26.5477 19.4173
278 1 26.8846 26.1259 16.4852
280 1 31.544 26.1558 16.7832
282 1 3.34369 7.75035 19.6406
340 1 8.37876 26.2449 20.1373
5913 1 32.9898 23.9612 20.5406
284 1 8.10991 7.86587 19.7117
286 1 12.5871 8.69892 20.7802
288 1 17.1811 8.16135 21.534
290 1 21.283 8.11499 21.8983
292 1 25.8708 8.09023 22.5452
32 1 11.0168 16.9655 -4.70302
306 1 26.1802 12.8787 22.5618
365 1 1.28634 10.442 22.4619
1615 1 11.3163 28.5089 10.6501
298 1 7.74774 12.4779 19.7103
300 1 12.4352 13.0406 20.8172
302 1 17.6862 12.958 21.2997
304 1 21.38 12.9608 21.7189
147 1 16.4609 6.41432 4.71775
307 1 28.7304 10.6065 20.0786
407 1 1.15991 23.7649 22.0988
5874 1 33.2019 10.4493 20.8122
379 1 0.974587 14.7239 21.9244
1693 1 29.2801 28.4458 19.381
312 1 8.20852 17.2621 20.2498
5887 1 33.0782 15.4301 20.0902
393 1 1.30938 18.9832 22.3098
395 1 5.59221 19.0089 22.9125
314 1 12.841 17.4291 20.3799
316 1 17.479 17.5341 21.1367
318 1 22.062 17.0771 22.2643
320 1 26.1481 16.768 22.7829
5900 1 33.5139 19.3113 20.2357
328 1 12.4666 22.0686 20.9738
324 1 3.41124 21.5051 19.8907
1471 1 3.37276 28.557 -3.0446
1681 1 1.75603 27.9162 15.6248
285 1 10.8164 6.08843 16.2258
1541 1 3.12289 28.0304 3.44598
1621 1 25.6961 28.5446 12.499
1691 1 24.4323 28.461 19.015
1545 1 12.1799 28.003 4.13589
1617 1 16.0469 28.1565 11.6134
1483 1 30.5537 28.273 -0.0488632
409 1 6.05447 24.0541 22.7556
334 1 26.4146 21.4528 22.7598
4 1 10.6437 8.28496 -4.85329
352 1 2.56175 7.64463 25.9589
497 1 13.3915 6.02663 36.8241
336 1 31.062 21.8278 22.9762
698 1 26.8718 26.3957 49.8231
361 1 23.2548 5.76632 25.3535
6160 1 34.0213 19.2203 41.6761
366 1 3.34503 12.3567 25.3254
368 1 7.46906 12.3921 26.152
369 1 9.93578 10.2699 23.1757
371 1 14.4551 10.7565 23.8056
370 1 11.5873 12.6315 26.5663
373 1 18.4716 10.4749 24.5238
375 1 23.2017 10.4202 25.0923
377 1 27.9803 10.0628 25.8454
383 1 9.89013 15.1637 23.1381
385 1 14.3678 15.3185 23.7079
384 1 12.0915 17.704 26.5554
387 1 18.8983 15.3404 24.4245
389 1 23.6573 14.5441 25.1667
391 1 27.6802 14.6052 26.6051
5952 1 32.4671 14.8034 26.3497
380 1 3.21879 16.655 25.9495
382 1 7.33443 16.8391 26.0522
397 1 10.2548 19.673 23.5888
399 1 14.9422 20.2161 24.0112
401 1 19.6083 19.8701 24.5547
403 1 24.0842 19.1472 26.1288
405 1 28.0055 19.2305 25.8813
5965 1 32.6215 19.2032 26.6899
394 1 3.26899 21.4479 25.7516
396 1 7.21909 21.5297 26.5417
413 1 14.9468 23.9857 24.2084
415 1 19.4088 24.2626 24.3894
417 1 23.9999 24.5938 25.3074
419 1 28.4329 23.9556 25.7644
477 1 0.562807 23.2992 28.1054
408 1 3.11246 26.2136 25.8216
410 1 6.8623 26.091 26.9319
696 1 20.6888 26.1255 51.2183
354 1 7.37399 8.22965 26.5965
356 1 11.6195 7.9872 27.0276
358 1 16.3926 8.16496 27.0812
360 1 20.4969 7.97347 27.9152
362 1 24.9651 7.73769 28.5345
364 1 29.7777 7.81731 29.3837
6121 1 34.1191 6.18264 41.5823
435 1 0.520772 10.0044 28.3152
437 1 4.69211 9.88381 29.1283
439 1 9.44902 10.2015 29.3936
372 1 15.982 13.012 27.1198
374 1 21.0517 12.7378 27.6263
376 1 25.2619 12.5236 29.0255
378 1 30.0035 12.5855 29.4484
5939 1 32.9776 10.1085 26.8869
322 1 30.1074 17.3819 23.0869
451 1 5.00425 14.6094 29.0964
453 1 9.1568 15.3397 29.5424
386 1 16.6067 17.7885 27.6638
390 1 24.9496 17.1509 29.5842
563 1 3.90118 6.06808 42.1586
465 1 4.40128 19.1864 28.9149
467 1 9.7386 19.3838 29.5208
388 1 21.2574 17.3089 28.124
392 1 29.7549 16.9985 29.7037
479 1 5.01048 23.8353 29.4136
481 1 9.62418 23.9811 30.168
398 1 11.9635 22.2272 27.1115
483 1 14.4532 23.9319 30.0424
400 1 16.759 22.1716 27.1204
402 1 21.2174 22.1083 28.316
404 1 25.2506 21.8563 28.7015
406 1 29.7982 22.23 28.9556
5978 1 33.3391 24.1463 26.3712
573 1 28.4705 6.01694 42.6702
412 1 12.4886 26.4461 27.3314
414 1 16.817 26.4686 27.3873
416 1 21.4566 25.923 27.8314
418 1 26.0736 26.5081 28.6564
420 1 30.544 25.8973 28.8812
700 1 32.8542 26.5046 49.057
422 1 2.90189 8.56755 32.1215
424 1 6.99926 7.97158 32.6074
426 1 11.2674 8.58103 33.3136
491 1 0.423787 6.03308 34.8203
433 1 27.2136 5.94506 31.9346
436 1 1.69797 12.7327 32.059
438 1 6.83135 12.4696 32.3224
440 1 11.5412 12.7455 32.8607
441 1 14.0354 10.3183 30.2303
443 1 17.9712 10.8926 30.6287
442 1 15.6253 12.791 33.574
445 1 22.8684 10.091 30.8975
447 1 27.3963 9.75503 32.1555
6004 1 32.379 10.7536 32.9694
450 1 2.17062 17.1398 32.1219
452 1 6.90732 17.1252 32.2867
455 1 13.7729 14.8731 29.8004
457 1 18.238 14.947 30.6652
459 1 22.6658 14.7964 31.5489
461 1 27.3938 15.0789 32.0601
6017 1 32.0662 15.1321 32.6752
454 1 11.5881 17.2166 33.2327
469 1 14.2879 19.5419 30.301
471 1 18.4668 19.5434 31.385
473 1 22.768 19.4876 31.6882
475 1 27.6903 20.014 32.0622
6030 1 31.7512 19.7222 32.5358
464 1 2.25406 21.695 32.2393
466 1 6.79645 21.3223 32.4629
468 1 11.5372 21.9768 33.064
485 1 18.9598 24.1598 30.9246
470 1 16.1517 22.2786 33.8276
487 1 23.5641 24.2966 31.6513
489 1 27.7968 24.2286 31.6109
6043 1 32.4481 24.3408 32.1284
478 1 3.06295 26.0777 31.8727
480 1 7.46814 26.5645 32.3567
308 1 30.3435 12.7832 23.3482
482 1 11.9809 26.7595 33.0119
294 1 30.4064 8.04426 23.5959
463 1 0.612645 18.7239 28.8698
428 1 16.0285 8.28478 33.8952
430 1 20.0158 7.88487 33.6593
432 1 24.6438 8.4811 34.9339
434 1 29.3234 8.234 35.5641
425 1 9.20833 5.92929 30.2234
646 1 0.599208 12.6875 50.2909
507 1 4.68399 10.3638 35.3427
509 1 9.25095 10.4853 35.9352
511 1 13.8922 10.4809 36.1897
513 1 17.7171 10.2259 37.0867
444 1 20.4758 12.574 34.1444
446 1 24.9853 12.5845 35.1136
448 1 28.9474 13.0633 35.3302
6069 1 32.7479 10.7589 36.7365
521 1 4.37513 14.7617 35.5102
523 1 9.01256 14.6721 36.0795
525 1 13.4874 15.1343 37.0529
456 1 15.7319 16.9767 33.5386
6082 1 33.0258 14.6988 37.3484
535 1 4.34639 19.238 35.5156
537 1 9.16191 19.35 35.9332
539 1 14.0239 19.6366 36.1991
458 1 20.3574 17.0196 34.8793
460 1 25.3902 17.1091 34.803
462 1 29.7838 17.5885 35.6933
549 1 4.87759 23.9438 35.5646
551 1 9.47143 24.4571 36.5603
553 1 13.6122 23.6708 37.0074
555 1 18.1931 24.2154 37.4075
472 1 20.85 22.2721 34.5279
474 1 25.3337 21.8249 34.775
476 1 29.3186 21.6719 35.973
495 1 8.58707 5.91011 35.8378
6134 1 33.8978 10.2731 41.4482
411 1 10.5451 24.8844 24.1269
484 1 16.2955 26.1097 33.8615
486 1 20.8578 27.0513 34.3535
488 1 25.456 26.4379 34.3698
490 1 29.5134 26.3195 35.3828
492 1 2.57053 8.20863 38.3717
494 1 6.37311 7.90507 38.6423
496 1 11.1715 8.04531 39.3486
498 1 15.8258 8.37217 40.2266
1763 1 28.5102 28.324 25.6255
634 1 5.86862 7.83997 51.1191
504 1 30.6707 8.69686 39.6551
506 1 2.20135 12.3299 38.2279
508 1 6.6375 12.6056 38.3346
510 1 10.9389 12.0966 39.634
512 1 15.5433 12.3681 40.2071
515 1 22.0267 10.3355 37.9201
514 1 20.1667 12.2627 40.5841
517 1 26.7459 10.2412 38.7025
518 1 30.6657 13.0605 39.6472
527 1 18.2395 14.6686 37.0457
529 1 22.9428 14.6551 37.6435
531 1 26.9392 15.1168 38.5391
520 1 2.07293 17.7491 38.1564
522 1 6.39264 17.2274 38.9791
524 1 11.0132 17.5396 39.1393
541 1 17.948 19.3972 36.9549
526 1 15.5347 16.859 39.9524
543 1 22.1049 19.292 37.5565
528 1 19.9529 17.0987 40.3999
545 1 26.5936 19.6373 38.1313
532 1 30.7257 17.4036 40.4503
6095 1 33.0428 19.3552 37.0215
534 1 2.08951 21.7835 37.6983
536 1 6.64968 21.4762 39.1542
538 1 11.4278 21.4424 39.42
540 1 15.7053 21.5407 40.4185
557 1 22.49 24.001 37.6384
559 1 27.0702 24.3772 38.3026
6108 1 33.1403 23.8889 37.4497
546 1 30.2572 21.8076 40.0666
548 1 1.61534 26.1905 38.1311
550 1 6.41532 26.1319 38.8249
552 1 11.1431 26.2492 39.7822
554 1 15.5269 26.3491 40.3674
556 1 19.8096 26.4599 41.0234
560 1 30.8021 26.189 40.0207
660 1 1.73117 17.0795 50.1992
674 1 1.16369 21.5832 50.3077
6056 1 33.0658 6.07924 37.1586
500 1 19.6736 7.69126 40.5686
502 1 24.6457 8.09263 41.2387
574 1 31.3932 8.01915 44.5345
577 1 3.77264 10.7128 41.5511
579 1 8.23508 10.353 42.3499
581 1 13.0255 10.132 43.2265
583 1 16.7225 10.727 43.5108
585 1 21.9742 9.96268 43.729
516 1 24.6226 12.9584 41.3808
587 1 28.3082 10.6222 43.0286
588 1 32.3084 12.7016 45.1485
591 1 4.53128 14.7151 41.2807
593 1 8.86287 14.5666 42.5701
595 1 12.894 15.0162 42.4665
597 1 17.4323 14.8154 42.7403
601 1 28.4902 14.6299 43.0802
602 1 31.8591 17.2514 44.6237
605 1 4.34638 19.5782 41.342
607 1 9.02532 19.2134 42.187
609 1 13.0702 19.1686 43.0888
611 1 17.5805 19.3168 43.2383
530 1 24.58 17.5331 41.1178
615 1 27.932 19.4386 42.5108
619 1 3.57125 23.5906 41.5936
621 1 9.16179 23.0858 42.6122
623 1 13.6541 23.8812 42.8675
625 1 17.497 23.9818 43.9725
542 1 20.3231 22.0413 40.9381
544 1 24.6991 21.4076 40.9324
629 1 28.23 23.8599 43.0104
357 1 14.2385 6.03347 24.2345
6173 1 33.8416 24.079 41.9533
558 1 24.2779 26.0379 41.688
1895 1 9.14352 28.1809 35.7935
562 1 1.54346 7.91481 44.6175
564 1 5.52294 7.82891 45.0983
566 1 10.1826 8.47263 45.2917
568 1 15.459 8.84818 46.9782
570 1 19.5088 8.22112 46.2223
572 1 25.8904 8.05191 45.2711
576 1 1.57304 12.3485 44.1525
578 1 5.95433 12.59 45.0651
580 1 10.6882 12.6567 45.8711
582 1 15.2484 12.8434 46.4541
584 1 19.8372 13.0487 46.313
586 1 25.5175 12.4226 46.0611
657 1 29.1229 10.394 47.8949
592 1 5.88337 17.3539 44.8214
594 1 10.9385 17.0103 45.7831
599 1 22.7806 14.6832 44.1343
598 1 19.9731 16.9914 46.6311
671 1 29.0962 15.0081 47.4868
590 1 1.73371 17.0112 44.3019
596 1 15.2739 17.0814 46.0369
613 1 22.2468 19.1172 43.8452
600 1 25.4218 17.0285 45.6663
689 1 3.31374 23.5598 47.3689
604 1 1.56514 21.0465 44.0459
606 1 6.5849 21.449 44.634
608 1 10.9084 21.6994 45.6678
610 1 15.5479 21.6614 46.3847
627 1 22.1247 23.8851 43.9507
612 1 20.1873 21.5109 46.6872
614 1 26.1045 22.386 45.9048
699 1 29.0112 24.254 47.6617
616 1 32.1324 22.0264 44.9078
618 1 1.63422 26.276 44.0858
620 1 6.10949 26.0391 44.5697
622 1 10.7973 26.3744 45.6046
624 1 15.3454 26.5124 46.3569
626 1 20.1003 26.3952 47.2593
628 1 25.7545 26.5229 45.5246
630 1 31.31 26.8009 44.4679
632 1 1.43373 8.00089 50.4748
641 1 22.8638 5.84556 48.4411
499 1 17.9181 6.16529 37.3626
2033 1 3.47989 28.1446 48.0599
1903 1 26.7587 28.2596 38.5102
642 1 26.4583 8.43318 50.1468
644 1 33.0751 8.04944 48.9827
431 1 22.832 5.7971 32.3831
647 1 3.32674 10.3348 48.2555
649 1 7.85683 10.2161 48.3659
651 1 12.4258 10.4544 48.8811
653 1 17.4726 10.4374 49.985
655 1 23.082 10.2719 48.3341
656 1 26.7576 12.4975 50.1386
658 1 32.7056 12.6993 49.1812
661 1 3.16497 14.729 47.6775
663 1 7.81296 14.6688 48.5768
665 1 12.5035 14.4226 49.0616
667 1 18.186 15.2333 49.3042
669 1 23.0222 14.9076 49.0682
670 1 26.8757 17.0447 49.9513
672 1 32.8083 17.2981 49.2567
6147 1 33.7024 14.8179 42.1193
675 1 3.59055 19.4122 48.0542
5991 1 31.844 5.99325 32.5708
677 1 8.19051 19.0371 48.3873
679 1 12.9455 19.4459 49.2545
681 1 17.1108 18.9703 49.4571
683 1 23.4823 19.342 48.062
685 1 28.8832 19.5042 47.1089
359 1 18.7553 5.77211 25.2247
691 1 7.9086 23.8519 48.3757
693 1 12.8742 24.0596 49.0645
695 1 16.904 23.7407 49.3641
697 1 23.0843 24.1933 48.6951
684 1 26.5193 21.9098 50.1138
686 1 32.8439 21.9602 48.8576
688 1 1.11147 25.6459 50.6086
427 1 14.3111 5.73827 30.2188
1899 1 18.3644 28.4405 37.237
1821 1 0.475525 27.8825 28.2355
2039 1 17.0614 28.2892 49.487
1831 1 23.4233 28.2853 31.5688
639 1 17.0789 6.49423 49.3386
676 1 6.01688 21.4371 50.7247
690 1 5.78 26.5856 50.8842
682 1 20.8167 21.9367 50.9156
1042 1 13.5401 26.1902 75.6335
1040 1 6.6724 25.5723 77.4552
638 1 14.0374 8.226 52.5483
640 1 20.669 8.53532 50.9531
987 1 15.9914 5.98182 72.8672
712 1 27.8775 8.81235 54.5567
702 1 0.674334 8.14362 56.4328
714 1 33.7123 7.67765 53.4446
717 1 3.27891 10.3724 54.1669
648 1 6.29201 12.2905 51.4206
650 1 10.7572 12.4251 51.5797
652 1 15.4808 12.7027 52.2243
723 1 18.0626 9.85066 54.5105
1055 1 11.0422 5.89816 78.488
725 1 24.1768 10.1722 53.1348
726 1 28.2507 12.7048 55.0919
727 1 30.441 10.0481 52.2009
983 1 3.7999 5.91995 75.1064
731 1 2.02707 15.61 53.7014
733 1 7.77888 14.1213 54.4267
739 1 24.1685 14.8506 53.2024
741 1 30.3791 14.6639 51.9231
745 1 3.00602 20.1686 53.5495
664 1 10.2135 17.1007 52.1959
666 1 14.906 17.2288 52.0239
751 1 18.0255 19.5957 54.3989
662 1 5.51051 16.8656 51.4361
753 1 24.0266 19.3643 52.7977
740 1 27.6181 16.6525 53.8998
755 1 30.2326 19.8162 51.7121
744 1 0.457201 21.3389 56.9247
759 1 3.14264 24.0693 53.7542
761 1 7.8976 24.0572 53.9629
2315 1 9.33822 28.2291 69.3253
678 1 10.4385 21.1734 51.5133
680 1 14.4502 21.5189 52.3945
765 1 18.4381 24.1797 53.9481
636 1 10.3024 7.59577 51.7972
767 1 24.3609 24.1985 53.0964
769 1 30.2682 23.7315 51.7516
692 1 10.3239 25.8395 51.4478
694 1 15.1462 26.1214 51.987
968 1 0.334701 25.9766 73.4757
768 1 27.4449 26.3456 54.6326
1038 1 1.05808 26.0925 78.4019
1118 1 30.9468 26.5009 78.4566
704 1 5.28973 7.8131 57.1653
742 1 33.5295 17.5094 53.525
708 1 15.6004 7.82229 56.9377
710 1 21.9554 7.97252 55.4564
716 1 0.971731 12.4114 55.9704
923 1 33.3743 6.03016 65.42
770 1 33.9723 26.5063 53.2314
719 1 7.84087 10.0094 55.038
718 1 5.51023 12.6048 56.9282
720 1 9.42005 12.3167 57.9198
721 1 12.6233 10.59 55.2842
722 1 15.9685 12.3944 56.5806
793 1 19.312 9.75055 58.9748
724 1 22.0749 12.3063 55.9278
795 1 25.2618 10.4468 57.5636
797 1 31.8675 10.4186 56.4068
730 1 0.542727 17.0244 57.0895
734 1 9.40367 17.3421 57.7593
735 1 12.4444 14.9502 55.005
737 1 17.9559 15.4927 53.828
809 1 25.4544 14.5175 57.5552
811 1 31.7474 15.5359 56.3641
732 1 5.13622 16.8926 57.1808
747 1 7.98968 19.4763 54.5381
736 1 15.915 17.3568 56.8147
749 1 11.8954 19.5562 55.833
738 1 21.8937 17.1362 55.9642
823 1 25.5139 19.0964 56.9904
825 1 31.3395 19.7517 56.2229
1116 1 27.1209 26.2128 77.4496
746 1 5.20923 21.5613 57.6511
748 1 9.99663 21.7519 58.1847
763 1 12.0914 23.7834 54.9481
750 1 15.9168 21.7345 56.9762
752 1 21.8207 21.5831 56.0358
837 1 25.8933 23.878 57.4823
754 1 27.5507 21.6106 54.6936
839 1 31.9648 23.8938 56.7094
760 1 4.93478 26.3067 57.2538
764 1 15.8806 26.2874 56.4533
766 1 22.281 26.2616 55.4706
913 1 2.25943 5.94736 70.6366
706 1 9.71933 8.01385 57.7575
778 1 17.0041 7.57545 61.4547
1077 1 34.2422 10.2626 75.7961
780 1 23.4432 7.38734 60.1229
782 1 28.6771 8.14238 58.9957
713 1 29.9896 5.6093 51.6966
787 1 3.02463 10.2616 59.7475
789 1 7.35163 10.648 61.1031
791 1 13.3128 10.2281 59.8462
792 1 16.6768 12.2187 61.3099
794 1 22.6284 12.1579 60.8325
796 1 29.131 12.8174 59.1839
867 1 32.555 10.1945 60.9487
801 1 2.72092 14.1099 60.395
803 1 7.58112 14.5832 60.5842
805 1 13.5184 14.1949 59.2422
807 1 19.1868 14.6272 58.7651
808 1 23.1409 16.6473 60.2103
879 1 26.6866 14.3645 62.0731
881 1 32.8332 14.7562 60.4914
815 1 2.32072 19.3062 60.5604
817 1 6.76673 19.5121 60.8759
819 1 13.2095 18.9786 59.6318
806 1 16.9705 16.638 61.3116
821 1 19.6813 19.3953 58.5509
893 1 26.1488 19.1568 62.5174
810 1 28.775 17.4757 59.3011
895 1 32.47 19.5037 60.6209
829 1 2.67053 23.8048 60.1532
831 1 7.26198 24.3691 60.806
833 1 13.2524 23.3688 59.4438
820 1 16.7857 21.327 61.4872
835 1 19.5801 24.3946 58.3394
822 1 23.0893 21.4024 60.1508
907 1 26.209 24.4523 61.978
824 1 29.0465 21.5416 59.5806
909 1 32.5334 24.094 61.4618
985 1 10.1902 5.82904 74.1037
1113 1 16.7788 24.2512 78.1924
762 1 9.53976 26.4749 57.3729
711 1 24.2865 5.71934 52.9668
836 1 22.6158 26.1171 60.0624
838 1 29.7308 26.1308 58.8402
1111 1 10.7831 23.6158 78.564
774 1 4.62537 7.90534 63.7149
776 1 10.3551 8.23069 62.4014
2321 1 27.7202 28.4104 66.4531
756 1 33.7968 22.1395 53.6725
850 1 24.1664 7.84874 64.7298
773 1 2.43147 6.01327 60.1914
852 1 30.3692 7.81045 63.7274
788 1 4.26724 12.3744 64.1668
790 1 11.2422 12.8984 62.5948
861 1 14.1818 9.66489 64.2984
863 1 20.2455 9.53879 62.9337
865 1 26.7049 10.1847 62.1318
864 1 24.2308 12.6647 65.1423
866 1 30.2342 12.5498 63.9183
937 1 33.8729 10.5438 65.3245
802 1 4.73737 17.0093 63.3618
873 1 8.33354 14.6612 65.0226
804 1 10.7019 16.9252 61.4669
875 1 14.1606 15.0216 63.9802
877 1 20.473 14.3931 63.065
880 1 30.2153 17.0125 63.2533
951 1 33.1696 15.1142 64.7186
889 1 13.2374 19.1997 63.5738
876 1 17.9794 16.8731 66.1665
891 1 19.9604 19.1704 62.8533
878 1 23.4548 17.0384 64.6353
1033 1 33.5856 19.6197 64.9787
816 1 4.8213 21.5386 63.7355
901 1 7.7601 23.8274 64.9669
818 1 10.4909 21.5377 62.6929
903 1 13.7586 23.6603 64.1802
905 1 20.3072 23.3831 63.116
892 1 23.6436 21.6804 64.639
894 1 30.4107 21.7615 63.8014
964 1 33.8201 24.3572 65.3686
830 1 4.25735 26.3815 63.4528
832 1 10.4739 26.1861 62.0737
834 1 16.7032 25.8577 61.3345
1026 1 6.76833 21.7691 77.0376
906 1 23.9894 26.2939 64.3733
908 1 30.1055 26.458 63.559
844 1 5.62735 8.27884 68.3028
846 1 11.7783 8.02061 67.1547
1024 1 1.52711 21.42 78.2379
848 1 17.5871 7.9124 65.3214
2183 1 31.5496 28.3327 56.0635
2385 1 10.0191 27.9494 73.8227
922 1 30.9087 8.57419 68.4038
2319 1 20.7958 28.4317 67.593
857 1 1.63139 10.0585 66.5059
858 1 5.52402 12.4176 68.0216
859 1 7.75218 11.0262 65.2315
860 1 11.6861 12.707 67.1085
931 1 15.0425 10.1023 68.3061
862 1 17.8503 12.5797 65.3514
933 1 21.091 9.96034 67.5836
935 1 27.7898 10.17 66.521
936 1 31.2556 12.7933 67.5731
871 1 1.68111 14.4987 66.5274
872 1 5.58086 16.9777 67.8992
945 1 15.2705 14.6219 68.2649
947 1 21.2104 14.6541 67.9589
949 1 27.3576 15.0711 66.4593
2103 1 2.83041 28.5972 53.8882
950 1 30.7212 17.6514 67.9424
885 1 1.68763 18.9637 66.1477
887 1 7.83045 19.7044 65.4571
874 1 11.511 16.6138 67.03
959 1 15.2588 19.3025 68.4811
961 1 20.9063 19.351 67.5394
963 1 27.5136 18.9939 66.365
899 1 1.39713 23.6293 66.0405
886 1 5.12392 21.7049 68.02
888 1 12.2151 21.1562 66.7571
973 1 14.8429 23.8795 68.1903
890 1 17.8933 21.092 65.9949
975 1 21.2199 24.2561 67.1467
962 1 24.7122 21.6783 69.2134
977 1 27.3331 23.6689 65.905
1035 1 30.8412 21.7939 68.373
900 1 5.64273 26.4305 67.9621
902 1 11.4063 26.4079 66.5524
904 1 17.9937 25.7914 65.2579
1104 1 31.3947 21.7627 78.2346
978 1 31.2852 26.3229 68.4577
916 1 12.6402 8.00549 71.3895
918 1 18.4987 8.53771 69.954
654 1 20.7009 12.6344 51.4142
920 1 25.212 8.08441 69.0371
1099 1 16.9594 19.1685 77.5778
927 1 2.5997 10.3575 71.0762
929 1 8.72762 10.3634 69.8978
930 1 12.4336 12.6501 71.6764
1003 1 22.5055 10.1638 72.0028
934 1 25.0249 12.1224 69.4295
1005 1 28.126 9.88731 70.8842
1006 1 31.9316 12.401 72.159
941 1 2.60918 15.1685 70.4843
943 1 8.85895 15.0562 69.7201
944 1 12.8004 17.1828 70.7337
932 1 18.7417 12.6507 70.2186
1017 1 22.4596 14.8596 72.3545
1019 1 28.553 14.6117 70.9045
955 1 2.1355 19.9143 70.8153
957 1 9.07367 19.2616 70.043
946 1 19.2567 16.7656 70.9974
1031 1 22.2409 19.5294 71.637
948 1 24.7011 16.9755 69.2096
1020 1 28.2636 19.6996 70.9702
969 1 2.66915 23.9477 70.1161
971 1 9.0932 23.6486 69.5312
958 1 12.6072 21.8733 71.3567
960 1 18.7202 22.2159 70.3597
1045 1 21.8688 24.0839 71.5047
1047 1 28.1553 23.8061 70.4372
2313 1 2.71803 28.2465 70.0246
972 1 12.5258 26.2099 71.0543
974 1 18.2226 26.2747 70.0806
2389 1 21.9918 28.3608 71.9457
976 1 24.5268 26.0914 68.9539
1048 1 32.2298 26.6325 72.4649
1057 1 16.9958 6.01491 77.5474
914 1 5.87079 8.77647 72.2253
709 1 18.0672 5.89198 53.9264
986 1 13.6651 8.72719 75.8083
988 1 19.9412 7.90193 74.6475
990 1 25.4178 7.84134 73.4214
1102 1 27.0594 21.682 77.7835
992 1 32.0435 7.82132 72.453
2459 1 23.5648 28.2511 76.1086
775 1 7.19883 6.04217 60.9983
997 1 3.44157 10.6097 74.949
928 1 6.17256 12.8204 72.7935
999 1 9.66827 10.3801 74.4847
1000 1 13.5161 12.7469 75.948
1001 1 16.4189 10.5881 72.6976
1002 1 19.7201 12.5754 74.8306
1004 1 26.1105 12.29 73.8725
1073 1 22.9179 10.9829 76.7043
1075 1 29.5078 10.5109 75.274
1097 1 11.1257 19.6799 78.585
1011 1 3.37225 14.7306 75.2664
942 1 5.82987 17.5681 72.4868
1013 1 10.1109 15.0165 73.8421
1014 1 13.156 17.9118 75.3639
1015 1 16.0341 15.2503 73.0616
1089 1 29.9469 14.8577 75.4268
1022 1 32.252 17.2998 72.236
1025 1 3.07616 19.3053 75.3287
1027 1 9.84201 19.5416 73.9965
1029 1 16.1239 19.7589 72.9655
1016 1 19.9916 16.8015 74.8473
1101 1 23.647 19.2967 75.9036
1018 1 26.1055 16.4525 73.361
1103 1 29.8925 19.3679 74.6568
1039 1 3.15503 23.8582 74.9338
956 1 6.03318 21.5774 72.3819
1041 1 9.65874 23.9201 74.2968
1028 1 13.2995 21.8558 76.1587
1043 1 16.0642 24.1845 73.4916
1030 1 20.1508 20.9748 74.6909
1032 1 26.1878 22.0345 73.3555
1117 1 29.8689 24.2708 75.1558
1119 1 34.1635 24.1231 75.8105
1034 1 31.9893 21.9621 72.2739
1012 1 7.4349 17.3973 76.8212
2383 1 3.81535 28.5445 74.3513
970 1 5.82928 25.9393 72.7928
1115 1 23.2654 24.0283 76.552
783 1 30.3931 6.08629 56.3734
1044 1 19.3812 26.3999 74.7315
1046 1 25.6734 25.9813 73.7783
2323 1 33.348 28.5338 65.229
982 1 1.06138 8.31998 77.9901
984 1 7.5627 8.17408 77.296
1088 1 27.3556 17.0462 77.8759
2177 1 13.1873 28.0982 59.5727
2455 1 10.5103 27.8176 79.1422
1060 1 26.6625 8.05735 77.8876
1062 1 31.8848 8.20369 78.5383
996 1 0.685632 12.4947 78.0817
998 1 7.27042 12.5987 76.8548
1069 1 10.7041 10.3989 78.9878
1071 1 17.0636 10.3331 77.3505
1090 1 31.6307 16.9381 78.0052
1074 1 26.8194 12.2919 78.0578
1076 1 31.2609 12.5337 79.1917
2181 1 26.42 27.9854 58.8157
1010 1 0.942076 16.8834 78.1386
1083 1 10.8903 15.1528 78.5496
1085 1 16.7239 15.1832 77.9702
1087 1 23.336 14.9094 76.9795
2245 1 7.45624 28.3257 65.0047
2173 1 2.12151 28.4915 60.5382
2243 1 1.51176 28.115 66.3648
2113 1 30.094 28.3125 51.683
2249 1 20.2152 28.0257 63.0038
917 1 15.5524 5.90452 68.6559
1100 1 20.9864 21.2443 79.2816
1086 1 20.985 16.9404 79.0005
1114 1 20.2982 26.611 79.121
668 1 20.7342 17.3151 51.3714
1052 1 2.45419 7.95773 82.4288
1054 1 8.27102 8.41534 81.4903
1056 1 14.8032 8.27565 80.0884