ITEM: TIMESTEP
279000
ITEM: NUMBER OF ATOMS
16000
ITEM: BOX BOUNDS pp pp pp
2.8868898916535102e-01 1.0191131101083855e+02
5.7688705588289935e+00 9.6431129441167485e+01
-5.1518634980048787e+00 1.0735186349800304e+02
ITEM: ATOMS id type x y z
1553 1 29.8389 28.3207 7.34777
10904 1 1.00011 17.0082 -0.239942
6 1 15.1654 7.83557 -4.20606
8 1 19.7398 8.25322 -3.87821
10 1 23.8673 8.20331 -3.2851
12 1 28.5396 8.12766 -2.29519
14 1 33.3046 7.71764 -1.7521
85 1 3.40576 9.92528 -2.78404
87 1 7.78601 10.1119 -1.18507
5835 1 33.9987 19.8076 14.338
89 1 12.8396 9.90628 -1.28029
20 1 15.0487 12.335 -4.54216
22 1 19.407 12.4537 -3.5206
24 1 23.8393 12.7936 -2.74688
26 1 28.344 12.2741 -2.19851
10995 1 0.672293 26.1314 6.36705
99 1 3.05982 14.618 -2.67019
101 1 8.62695 14.4517 -2.36531
38 1 24.1434 16.7886 -3.37503
42 1 32.8505 17.1023 -1.97964
10982 1 0.368076 21.8521 6.25963
113 1 3.15777 19.2318 -3.26176
115 1 8.09908 19.1892 -1.7461
34 1 15.0349 16.9717 -4.91174
36 1 19.5789 16.7307 -4.40278
40 1 28.8852 16.6669 -2.39216
5848 1 33.8099 23.9045 14.2384
127 1 3.7333 23.8575 -2.61593
129 1 7.77696 23.8231 -2.08324
131 1 12.432 24.1083 -1.20552
48 1 14.5134 21.4683 -4.22824
50 1 19.8184 21.363 -3.99484
52 1 23.5545 21.2805 -3.365
54 1 27.989 21.5826 -2.31702
56 1 32.8602 21.9256 -2.19588
10956 1 0.289275 12.507 5.99883
69 1 31.0733 23.8693 -4.98967
1689 1 19.5695 28.3115 17.9484
62 1 14.9977 26.2049 -4.44236
64 1 19.6916 26.0024 -3.90028
66 1 23.8881 26.0964 -2.99882
68 1 28.4442 26.4572 -2.27417
70 1 32.8462 25.9729 -1.97519
10878 1 0.846949 7.89086 0.0826873
72 1 5.5087 7.55786 0.504464
74 1 10.1962 7.87843 1.19668
76 1 14.1427 7.45246 1.56987
32 1 10.1989 16.5932 -4.98115
86 1 5.50645 12.3845 0.66939
88 1 10.1913 12.456 1.54672
90 1 14.7625 12.1088 2.06168
91 1 17.1536 9.02639 -0.332083
93 1 20.9793 9.71574 -0.0906098
95 1 25.4648 10.1108 0.803047
97 1 30.259 10.3562 1.20013
28 1 32.9174 12.5417 -1.92559
10891 1 0.470421 12.3844 -0.0158382
102 1 9.77747 16.6032 1.26648
103 1 12.6425 14.3142 -1.86772
105 1 17.0635 14.6155 -1.26522
107 1 21.4188 14.5912 -0.220777
109 1 25.4024 14.5728 0.563329
111 1 30.6728 14.7774 1.3194
1479 1 21.4518 28.172 -0.283054
100 1 5.55085 17.3306 0.264555
117 1 12.3716 19.0677 -1.65676
104 1 14.3803 16.7216 1.75014
119 1 17.1546 19.1273 -1.09031
121 1 21.2685 18.9505 -0.237095
123 1 25.9853 19.1674 -0.18305
125 1 30.3155 19.3329 0.832837
10917 1 1.03198 22.0718 -0.127264
114 1 5.5487 21.3561 0.319446
116 1 10.2392 21.4083 1.17079
118 1 14.7768 21.3421 1.65134
133 1 16.95 23.7319 -1.28477
135 1 20.9578 23.6007 -0.0737604
137 1 25.4218 23.6563 0.191436
139 1 30.0954 24.0696 1.045
10930 1 1.22673 25.7262 -0.284268
128 1 5.19232 26.1097 1.06718
130 1 10.0764 25.9837 1.32591
132 1 14.814 26.4391 1.73151
346 1 21.9385 26.2089 21.2757
73 1 8.256 5.92557 -1.65275
353 1 5.66074 5.93504 22.9316
344 1 16.9145 26.0817 21.2403
10943 1 0.800767 7.69922 5.77842
383 1 10.0825 14.3015 22.8446
78 1 18.5061 7.60282 3.12735
1615 1 11.4234 28.1671 10.6427
80 1 23.0944 7.98346 3.29932
82 1 27.4576 8.03263 4.15104
84 1 32.3169 8.00992 4.42409
155 1 2.67884 10.3904 3.62756
157 1 7.76755 10.107 3.41869
159 1 11.8454 9.69113 4.88142
92 1 18.7313 12.356 2.72188
94 1 23.0248 12.1756 3.4073
96 1 27.7649 12.0672 3.45097
98 1 31.9965 12.5549 4.70338
169 1 2.63985 15.0179 3.50569
171 1 6.96389 14.8215 4.31958
173 1 11.6615 14.4247 4.64706
175 1 16.3265 14.3786 5.78306
108 1 23.8687 16.7932 3.2252
110 1 28.0715 16.8052 3.52355
112 1 32.4825 17.0959 4.36949
183 1 2.92842 19.3194 3.47938
185 1 7.33812 19.2268 4.27326
187 1 11.9017 19.1554 4.82526
106 1 18.8261 16.8743 2.59398
197 1 2.92221 23.9322 3.58181
199 1 7.6727 23.7504 4.17526
201 1 12.2678 23.8009 4.73923
120 1 18.9697 21.452 2.37755
122 1 23.6256 21.135 3.37388
124 1 27.4705 21.3981 3.66809
126 1 32.1769 21.9702 3.81113
407 1 0.938682 23.9834 21.7979
381 1 5.5983 14.8569 22.6042
134 1 18.8062 26.0233 2.34867
136 1 23.4415 25.6406 3.2435
138 1 28.059 25.6063 3.86959
140 1 32.5445 26.5793 3.982
60 1 10.7828 26.1224 -4.86832
142 1 5.27906 7.90483 6.65327
144 1 9.65086 7.53212 7.64956
146 1 14.232 7.39961 8.57976
148 1 18.57 7.75783 8.72303
342 1 12.5498 26.308 19.957
318 1 21.6259 16.6551 21.9278
326 1 8.64721 21.3646 19.5662
156 1 4.86322 12.2657 6.72173
158 1 9.44563 12.4089 7.35601
160 1 14.0885 12.205 8.33478
161 1 15.7535 9.82068 5.65567
162 1 18.1795 12.9132 8.52859
163 1 20.2503 10.0266 6.45
164 1 23.4689 12.5139 9.595
165 1 25.5188 10.0324 6.82638
167 1 30.4431 9.88964 8.085
170 1 4.83552 17.0025 6.65205
172 1 9.13767 16.9454 7.78627
174 1 14.011 16.7979 7.76168
177 1 20.805 14.5828 6.19304
179 1 25.481 14.6007 6.75027
181 1 30.0011 15.3237 7.40033
350 1 30.7071 26.1742 22.7525
189 1 16.5992 19.0919 4.93729
191 1 21.1285 19.2491 6.0249
193 1 25.8291 19.1879 6.83678
195 1 29.9563 19.3327 6.75156
409 1 5.54408 24.1318 22.1145
184 1 4.85585 21.2308 6.82493
186 1 9.0318 21.4348 7.99857
188 1 13.5319 21.1008 8.30842
203 1 16.1421 23.9812 5.4754
190 1 17.7855 21.3407 8.77323
205 1 20.6813 23.9738 5.81224
207 1 25.2154 23.1498 7.12139
209 1 29.8614 23.6281 7.32599
198 1 5.20322 26.1663 7.14239
200 1 9.87301 25.814 7.05172
202 1 13.6202 26.38 7.55474
204 1 18.3347 25.6577 8.87471
5913 1 34.0655 24.0404 20.1812
316 1 16.928 16.7072 21.3898
5900 1 33.5436 19.6533 20.7656
314 1 12.9909 16.8641 20.3702
153 1 30.4392 5.93153 8.12236
150 1 23.3187 7.7059 9.01151
152 1 27.078 7.55049 10.4823
154 1 31.8762 7.95353 10.8624
225 1 2.29491 9.87406 9.64943
227 1 6.97983 10.2592 10.5168
229 1 11.2871 9.5623 10.8102
231 1 15.8004 10.2397 11.4013
233 1 20.2 9.5382 12.2847
166 1 27.4148 13.0306 9.81321
168 1 31.8813 13.0091 10.9859
239 1 2.22595 14.4725 9.66693
241 1 6.85436 14.3273 10.0569
243 1 11.6971 14.2809 10.685
245 1 16.0723 14.4543 11.6077
247 1 20.3715 14.1399 11.7334
178 1 22.8134 17.1348 9.75883
180 1 27.5225 17.1585 9.93463
182 1 31.4786 17.3572 11.4322
253 1 2.28438 19.2661 9.3249
255 1 6.67773 19.4208 10.4817
257 1 11.1439 18.3104 10.5667
176 1 18.3663 17.505 8.7339
259 1 14.974 18.9276 11.7919
261 1 19.7536 18.8046 12.2102
267 1 2.66401 23.8564 10.0596
269 1 6.62191 23.7838 10.1536
271 1 11.196 24.0481 11.3985
275 1 20.324 22.7519 11.9645
192 1 22.5684 20.8854 9.32407
194 1 27.1543 21.7098 10.4677
196 1 31.9331 21.7593 10.5129
2 1 5.76011 7.91156 -5.29414
393 1 0.890557 19.1267 22.1652
273 1 15.8075 23.0479 11.8461
206 1 22.5844 25.8676 9.55598
335 1 29.0955 19.1053 19.7796
5887 1 33.4279 15.0091 20.0168
208 1 27.2918 26.3152 9.94594
210 1 31.8966 26.2421 10.6874
212 1 4.00534 7.81763 12.9728
320 1 26.0668 17.0848 22.5361
214 1 8.72494 7.73928 14.1752
216 1 12.8214 7.49793 14.576
218 1 17.622 6.91886 15.0053
220 1 22.0115 7.40252 16.2594
349 1 29.1569 23.868 19.671
295 1 1.54747 10.1447 15.9773
226 1 4.28393 11.6338 12.8307
228 1 8.93139 12.6744 13.491
230 1 13.104 11.5772 13.943
232 1 17.7735 12.0523 15.038
234 1 22.1504 11.9829 15.1778
235 1 24.5276 9.70129 13.0828
237 1 29.0067 9.95216 13.2335
18 1 11.2029 12.4569 -5.0421
309 1 1.86493 14.7155 15.6756
248 1 22.1576 16.5815 15.5202
249 1 25.2422 14.3936 12.7177
251 1 29.3828 14.7931 14.7022
348 1 26.4358 26.1861 22.2113
323 1 1.29437 19.2669 16.1113
240 1 3.821 17.2567 13.354
242 1 8.48322 16.6497 13.5558
244 1 12.829 16.1828 14.3863
246 1 17.99 16.8184 14.773
263 1 24.4549 18.8756 12.6454
265 1 29.4421 19.3382 13.7563
250 1 26.676 17.1779 16.2158
337 1 1.49785 23.6088 16.0928
254 1 3.74547 21.4918 13.2233
256 1 8.32245 21.3135 13.7934
258 1 12.9207 20.8542 14.3321
260 1 17.9763 21.2601 15.641
262 1 22.7406 20.7396 15.4625
277 1 24.3659 23.6064 12.5468
279 1 29.5828 23.9537 13.6167
1473 1 7.92308 27.813 -2.47063
268 1 4.24031 26.0979 13.0562
270 1 8.75151 25.959 13.859
272 1 14.0819 26.7776 13.9716
274 1 17.6861 25.6476 14.571
276 1 22.1356 25.5162 15.4008
1475 1 12.4188 28.2915 -1.03292
334 1 25.811 21.6915 21.7358
282 1 3.73589 8.00926 19.1495
1691 1 24.1289 28.3502 18.6722
5822 1 34.0537 15.302 14.4649
222 1 27.0067 7.13256 16.4192
224 1 30.9685 7.8296 16.8008
296 1 3.37683 12.4056 19.3499
297 1 6.14078 9.86243 16.5592
299 1 10.4802 10.4317 17.341
301 1 15.27 9.61137 17.5344
303 1 19.6947 9.79585 18.2397
305 1 24.4697 9.66377 18.5027
236 1 26.7639 11.9793 16.4652
238 1 31.375 12.3984 17.0254
310 1 3.63729 17.0387 19.2917
311 1 6.29452 14.3459 16.2908
313 1 10.8025 14.469 17.1732
315 1 15.4316 14.2677 17.5469
317 1 19.5504 14.39 18.3488
319 1 23.9299 13.8177 18.9655
252 1 31.3742 17.0412 17.2345
325 1 5.92012 19.0661 16.5256
327 1 10.5826 18.9578 16.9394
329 1 15.1324 18.7886 17.6861
331 1 19.7988 19.0677 18.487
333 1 24.2649 18.4091 19.0101
324 1 3.33188 21.5135 19.5116
339 1 5.84299 23.7095 16.7689
341 1 11.4624 23.711 16.501
343 1 15.1572 23.7568 17.6044
345 1 19.8962 23.6108 18.2965
347 1 24.0661 23.5793 18.2492
264 1 27.0216 21.6592 17.1734
266 1 31.7518 21.4383 16.9266
338 1 3.55503 26.3383 18.6281
340 1 8.74453 26.0029 19.6222
1613 1 7.02578 28.0823 10.0439
278 1 26.6929 26.1882 16.6495
280 1 31.497 26.6754 17.0491
332 1 21.826 21.0906 21.5826
284 1 8.00344 7.50382 20.2395
286 1 12.6796 8.1071 20.8815
288 1 17.2395 7.89232 21.2593
290 1 21.4504 7.6641 22.0406
292 1 26.4735 8.40038 22.4132
330 1 17.1697 21.6016 21.1834
1619 1 20.5302 27.7903 12.3632
365 1 1.02711 10.471 21.7998
81 1 26.0691 5.85565 -0.182831
298 1 7.15748 12.5635 19.6117
300 1 13.0408 11.955 20.9787
302 1 17.3245 11.7243 21.1677
304 1 21.6588 11.7436 21.7731
306 1 26.1426 12.3209 22.1432
307 1 29.3778 10.0257 19.3775
5874 1 33.0379 10.2622 20.7518
379 1 0.979418 15.0559 22.3265
395 1 6.09299 19.4414 22.9848
312 1 8.20092 17.182 19.5085
328 1 12.684 21.7986 20.2563
321 1 28.6149 14.4487 19.3998
1543 1 7.51656 28.2217 3.78473
1547 1 16.617 28.3048 4.88283
1481 1 25.972 28.3283 0.254533
1545 1 11.8407 28.2756 4.8079
1541 1 3.69219 28.199 3.72899
1753 1 5.63488 28.2732 22.4607
1687 1 15.9319 28.0419 17.2581
1621 1 24.9756 28.1205 13.1067
83 1 30.739 5.88675 1.28449
4 1 10.5991 8.15843 -4.97084
16 1 5.19903 12.5155 -5.00903
352 1 3.22338 8.21553 25.3773
354 1 7.52717 7.55353 26.3982
641 1 23.0877 5.77865 48.1637
411 1 10.1442 23.7374 23.3102
567 1 12.6299 6.31913 42.6152
366 1 2.85137 12.9264 25.3929
368 1 7.62051 12.355 26.0964
690 1 5.2206 26.7487 50.9576
371 1 14.7813 9.68226 23.5541
373 1 19.0524 10.0311 25.2395
375 1 23.5234 10.2406 25.5014
377 1 28.2614 10.8622 25.9576
425 1 9.30467 5.71772 30.3581
382 1 7.4656 16.5873 25.7801
385 1 14.8246 14.257 23.8388
387 1 19.1019 14.5513 24.4153
389 1 23.6745 14.9343 25.0477
391 1 28.3543 14.7846 25.51
380 1 2.86816 17.6678 25.7555
397 1 10.2248 18.9586 23.0936
399 1 14.4162 19.0045 23.5917
401 1 19.1319 19.2029 24.8734
403 1 23.6937 19.4005 24.5463
405 1 28.3797 19.6822 25.1922
5965 1 32.7305 19.8655 26.6366
394 1 3.0273 22.0545 25.0212
396 1 7.89017 21.9132 25.7517
336 1 31.1278 22.1167 23.1288
413 1 14.7749 23.8777 23.8919
415 1 18.9689 23.809 23.9724
417 1 23.3248 24.1178 24.9035
419 1 28.1183 23.6247 25.5217
408 1 3.18812 25.9404 25.6959
410 1 7.94329 26.0871 25.718
565 1 8.50474 6.14205 41.955
6173 1 34.0045 24.4703 41.4583
463 1 1.00955 19.6406 28.4638
294 1 31.1419 7.87865 23.0942
668 1 20.5311 17.7832 50.8893
6134 1 34.1321 10.626 41.2763
356 1 12.1294 7.84275 26.7662
358 1 16.9154 7.63858 27.4236
360 1 21.7409 7.91844 28.1138
362 1 25.4769 8.25205 28.5465
364 1 30.3496 8.27628 29.2701
437 1 5.282 10.3552 28.5982
439 1 10.061 10.5234 29.6662
370 1 12.1458 11.9536 26.9264
372 1 16.6562 12.4721 26.8947
374 1 21.8348 12.8971 27.7862
376 1 25.8762 12.6749 28.572
378 1 30.8353 12.795 29.4541
5939 1 32.8901 10.4995 26.2616
700 1 32.3864 26.0196 48.5002
449 1 0.538542 14.8858 28.7711
451 1 5.22223 15.1019 28.7048
453 1 8.96094 14.9626 29.9505
455 1 14.1141 14.9073 29.8377
392 1 30.3904 17.6204 28.9518
5952 1 32.7826 15.2062 26.2756
639 1 17.1593 5.8386 49.1488
465 1 5.77863 19.4906 28.9474
467 1 10.5087 19.7062 29.8186
384 1 11.6543 16.5725 26.5463
469 1 14.5875 19.203 30.4667
386 1 16.9435 17.1528 27.0063
388 1 21.6511 17.4276 28.3224
390 1 26.0298 17.1782 28.3107
648 1 5.06651 13.1897 51.0176
479 1 4.92936 23.81 28.671
481 1 9.64178 24.2676 28.8611
398 1 12.2057 21.107 26.6205
400 1 16.7543 21.5426 26.8871
402 1 21.6665 21.2932 28.3219
404 1 26.104 22.0163 28.55
406 1 30.113 21.6082 29.2184
5978 1 32.7485 24.4806 26.4756
412 1 12.6201 26.1472 26.4978
414 1 16.9374 26.3353 27.0227
416 1 21.5635 25.9164 28.07
418 1 25.6631 26.1643 28.3347
420 1 29.9037 26.3126 29.472
688 1 0.643833 26.1767 50.7996
422 1 2.97795 7.72144 31.1318
424 1 7.10242 8.21143 32.5144
426 1 11.6851 7.88259 32.7447
1823 1 4.91 28.2992 28.7157
1755 1 10.2521 28.472 23.1545
569 1 17.3185 6.07713 43.9264
646 1 0.451839 12.939 50.5158
436 1 2.60333 12.3375 31.0687
438 1 7.10225 12.268 31.86
441 1 14.7034 10.3228 29.5287
440 1 11.6067 12.232 32.6535
442 1 16.4687 12.3899 33.1664
443 1 19.0432 9.89271 30.1672
445 1 23.6218 10.3567 31.4401
447 1 28.0334 9.80683 31.9823
6004 1 32.3314 10.6361 32.5883
457 1 19.0138 14.5477 30.3967
456 1 16.0123 16.6319 33.3846
459 1 23.333 15.2649 31.3839
461 1 27.7313 14.5228 31.1293
6017 1 32.1944 14.6564 32.3606
450 1 2.69221 16.5356 31.4003
452 1 7.15837 16.9105 32.5885
454 1 11.7139 16.6673 32.9366
471 1 18.6102 19.3871 30.6316
473 1 23.2619 19.3306 31.4706
475 1 28.1315 19.15 31.8124
6030 1 32.7503 19.5979 32.347
464 1 2.52813 20.9774 31.5678
466 1 7.96008 21.2927 32.4559
468 1 11.7461 21.5551 33.1693
483 1 14.3633 23.2917 29.8616
485 1 19.0086 23.9303 30.3183
487 1 23.4492 23.7633 31.7757
489 1 28.5472 23.7123 32.2673
6043 1 32.4954 24.3084 32.8434
478 1 2.81514 25.7881 32.1838
480 1 7.41608 26.0856 31.991
482 1 11.5349 25.8145 32.6193
484 1 15.974 25.9119 33.196
486 1 20.6965 25.3733 33.9242
369 1 10.1047 9.8744 23.1926
435 1 0.769394 10.1448 28.5952
428 1 16.329 7.81961 33.3758
430 1 20.446 7.8605 33.9725
432 1 24.9649 8.08507 34.9161
434 1 29.6753 7.71614 34.8765
507 1 4.12875 9.92695 34.6919
509 1 9.04394 9.95778 35.4562
511 1 14.1366 10.1366 35.8153
513 1 18.4128 9.98717 36.8602
444 1 20.3048 12.4373 34.0792
446 1 25.1478 12.5141 34.3912
448 1 29.4391 12.442 34.7264
521 1 4.55747 14.4737 35.1399
523 1 8.51544 14.7011 35.3675
525 1 13.3769 14.5388 36.5629
460 1 25.4299 16.9317 34.4419
462 1 29.9555 17.0568 35.5927
363 1 28.3171 6.02503 25.5793
535 1 4.64979 19.4523 35.1208
537 1 8.82986 19.2 35.7034
539 1 13.3578 19.0574 36.3383
541 1 17.9661 19.3053 36.6744
458 1 20.8495 17.0448 34.9871
6095 1 33.2811 19.5726 36.9516
549 1 5.19646 23.5467 34.8946
551 1 9.26785 23.9542 36.2879
553 1 13.4773 23.8967 36.469
470 1 15.5055 21.2631 33.7595
555 1 17.9749 23.5058 36.7716
472 1 20.2163 21.4922 34.1846
474 1 25.6389 21.5519 34.8809
476 1 29.941 21.8473 35.3739
322 1 30.9484 17.3191 23.4774
686 1 32.6293 21.2825 48.681
501 1 22.5634 5.79561 37.4175
488 1 25.4308 25.9834 34.4672
490 1 29.8439 26.2317 36.2886
492 1 1.63638 7.82616 37.8708
494 1 6.14431 7.92237 38.3927
496 1 11.0609 8.41969 38.8704
498 1 15.6941 7.80045 39.7269
682 1 20.9473 21.8548 50.7728
431 1 23.2929 5.85524 30.9679
500 1 20.1765 7.91127 40.6299
504 1 30.9559 8.05261 39.4807
506 1 2.01358 12.5208 37.6039
508 1 6.23746 12.5848 38.0667
510 1 10.7797 12.3788 39.054
512 1 15.2369 12.4141 39.2906
515 1 22.4155 10.4068 37.7047
517 1 27.1733 10.4403 37.9821
518 1 30.8706 12.1684 39.2378
6069 1 33.2789 10.3703 36.3874
524 1 10.143 17.112 39.0383
527 1 18.1113 14.6258 36.7476
529 1 22.7716 14.874 37.8281
531 1 27.2553 14.7985 38.3139
532 1 30.938 17.4241 40.1363
6082 1 33.197 14.9594 37.0338
520 1 2.16927 17.1679 37.9875
522 1 5.8488 16.8298 38.7013
526 1 15.5937 17.0827 39.9334
528 1 19.71 17.8946 40.0999
543 1 22.7225 19.5835 37.3384
545 1 27.3536 19.0959 38.1635
534 1 1.7266 21.9187 37.8726
536 1 6.35078 21.5217 39.0366
538 1 10.74 21.8828 39.0914
540 1 15.3429 21.6205 39.6627
557 1 22.9352 23.8788 37.5269
542 1 20.0303 21.9134 40.2787
559 1 27.2079 23.3009 38.9319
6108 1 33.2872 24.3224 37.4295
546 1 30.6186 22.0455 39.4879
548 1 2.17147 25.8516 38.2187
550 1 6.29128 25.5882 38.6817
552 1 10.9503 26.3795 39.2854
554 1 15.6477 25.7349 39.7427
684 1 26.9237 21.245 50.322
560 1 30.1835 26.8487 39.9403
562 1 1.14586 8.25595 45.1094
5991 1 32.128 5.88355 31.9043
696 1 20.8226 26.3916 50.9936
697 1 23.394 23.6023 47.9957
502 1 24.4286 7.52291 40.4857
577 1 3.48054 9.91012 41.4575
579 1 8.29202 10.2328 41.7879
581 1 12.9119 10.3773 42.7455
583 1 17.6888 10.6716 42.6872
514 1 19.2673 13.1117 40.0694
585 1 22.0434 9.76973 43.7868
516 1 24.799 12.2788 40.861
587 1 27.7659 10.2517 42.3183
591 1 3.94078 14.5127 41.2015
593 1 8.33388 15.1006 42.2692
595 1 12.9902 14.6963 41.5591
597 1 17.3648 15.2557 43.1206
599 1 21.8579 14.4283 43.7979
601 1 28.369 14.8556 42.0515
2037 1 12.8327 28.1155 49.1924
605 1 3.34178 19.0906 41.2197
607 1 7.91429 19.5364 41.9317
609 1 12.6824 19.0429 42.3042
611 1 17.2533 19.3553 43.2688
613 1 22.0888 19.2505 43.5539
530 1 24.3052 16.8923 40.7137
615 1 27.8916 19.3899 42.4554
698 1 26.7703 26.3206 49.681
619 1 3.65771 23.9403 41.6287
621 1 8.42227 24.0518 42.2955
623 1 13.0939 23.7355 43.0999
625 1 17.6706 23.9148 42.9656
627 1 21.5342 24.0217 43.3873
544 1 24.3296 21.5717 40.5482
632 1 0.814858 8.33409 50.7632
1829 1 18.9872 28.4081 30.7588
695 1 16.9483 24.2444 49.4591
556 1 20.4479 26.3494 39.5478
558 1 25.0555 25.9723 40.9673
629 1 28.1251 24.6824 43.2394
564 1 5.86728 8.10185 44.8944
566 1 9.67931 8.05018 45.1757
568 1 14.4374 8.05339 45.7885
570 1 18.9793 8.28163 46.7806
572 1 25.3297 7.71659 45.4668
643 1 29.1244 5.81924 47.0137
574 1 31.8677 8.5107 43.8677
576 1 1.27194 12.3246 43.9918
578 1 5.89779 12.9054 44.839
580 1 10.6646 12.8748 44.5828
582 1 15.0231 12.4328 46.1634
584 1 19.6697 12.9357 46.4075
586 1 25.9237 12.4277 45.2522
657 1 29.2298 10.436 46.4374
588 1 31.811 12.249 43.9236
590 1 0.985412 16.9456 44.7821
596 1 14.4845 17.437 45.9766
598 1 19.0296 17.0732 46.7091
671 1 29.0144 14.7685 46.5458
592 1 5.59314 17.4023 44.5254
594 1 10.8249 16.9789 44.7427
600 1 25.5575 16.6738 45.5718
685 1 28.9669 19.3765 46.986
602 1 32.0141 17.7266 44.0351
604 1 0.667079 20.8764 44.5153
606 1 5.19648 21.7356 44.7846
608 1 10.4954 21.2186 45.3593
610 1 15.067 22.172 46.0467
612 1 19.5189 21.7441 46.5806
614 1 25.6049 21.2615 45.0495
699 1 28.7769 23.9691 47.2895
616 1 31.4659 21.5463 44.5258
618 1 1.52489 26.0752 44.1814
620 1 5.99317 26.1949 44.895
622 1 10.6911 25.8405 45.6868
624 1 15.4276 26.5612 45.9869
626 1 20.0493 25.9899 46.5244
628 1 25.1764 26.1176 45.4028
1825 1 9.60018 28.2339 29.3456
630 1 31.0492 26.2767 44.7427
633 1 3.47534 5.61661 48.2437
654 1 21.0083 12.5695 50.8415
6147 1 34.0456 15.2049 40.8192
693 1 12.1746 24.1516 48.8315
642 1 27.1301 7.80662 49.7172
644 1 32.2553 7.86436 49.0868
647 1 3.32553 10.3868 47.7953
1901 1 22.9523 27.9419 36.9205
649 1 7.73455 10.4333 48.4024
651 1 12.2169 10.886 48.876
653 1 17.1468 10.5894 49.4131
655 1 23.1606 10.2942 48.4368
656 1 27.0441 12.2238 49.7841
658 1 32.9384 12.5178 48.3086
661 1 3.29554 14.7573 47.2869
660 1 0.554125 17.3854 50.5668
663 1 7.5174 15.1905 47.4228
665 1 11.9573 14.6475 48.62
667 1 16.9451 15.1893 49.1957
669 1 22.8751 14.8381 47.8439
672 1 32.5358 17.1596 48.7325
675 1 3.01858 19.6735 48.3393
677 1 7.53892 19.0687 47.8477
679 1 12.1461 19.5956 48.3954
681 1 16.4825 19.7815 49.664
683 1 23.1208 19.2021 48.2481
670 1 26.6722 16.9176 49.9028
689 1 3.17737 24.2452 48.3803
674 1 0.604879 21.6358 50.6253
691 1 7.28781 23.7759 47.9615
637 1 12.3984 6.27259 48.6397
1893 1 4.74423 28.2046 35.095
1895 1 8.76576 28.4085 35.6822
308 1 30.6554 12.6617 23.0702
2035 1 7.87534 28.2472 48.3336
2041 1 23.1183 28.3271 48.054
662 1 5.23858 17.4915 50.8013
1969 1 17.9393 28.0357 43.1651
1903 1 27.1254 28.1988 38.1846
1833 1 27.6329 28.1941 32.081
1827 1 14.2599 27.4229 29.9039
1971 1 22.0514 28.1111 43.7381
1759 1 19.7949 28.2461 24.0169
1899 1 18.1808 28.3004 36.7623
1897 1 13.5466 27.879 36.5202
503 1 27.2519 5.82788 38.2387
495 1 8.95718 5.95935 36.1162
563 1 3.84077 5.9451 42.3803
573 1 28.2368 6.21786 42.5097
571 1 21.8999 5.92235 44.2078
636 1 9.9874 8.23571 50.9463
367 1 5.56339 10.2641 22.9421
843 1 1.36949 5.77759 66.571
640 1 20.9924 8.57057 51.4191
983 1 4.04614 5.89417 74.6796
638 1 14.514 8.58923 52.205
1021 1 34.0313 14.8869 69.1353
1069 1 10.8099 10.3378 79.132
676 1 5.329 21.9047 51.7114
717 1 3.09112 11.0943 53.7594
2183 1 31.3712 28.4668 56.1029
650 1 9.71797 13.0852 51.3081
652 1 14.2913 12.9426 52.391
723 1 17.8627 10.2878 53.3141
2455 1 11.2529 28.1771 78.8768
725 1 24.4847 9.96347 52.8341
727 1 30.6573 10.0835 51.8077
726 1 27.7251 12.4232 53.7023
912 1 0.486954 8.25167 73.5859
731 1 3.25861 15.7641 54.0605
733 1 7.09685 15.0916 54.3141
707 1 11.6348 5.71936 55.5063
664 1 9.92456 17.5998 51.6201
666 1 14.0107 17.3725 52.3579
737 1 17.9945 14.8705 53.5275
847 1 13.8672 6.14822 64.853
739 1 24.4851 15.1956 52.5168
741 1 30.4538 14.7387 51.6584
745 1 3.22199 19.6439 53.7668
747 1 7.64545 19.1106 54.7532
751 1 17.9048 19.7089 53.8762
753 1 24.5255 19.0892 52.3889
740 1 28.3761 17.0619 54.3415
755 1 31.0481 19.28 51.7048
742 1 33.7735 17.1055 53.4873
759 1 2.82253 24.0537 54.0265
761 1 7.42355 23.6137 54.7961
1007 1 34.1594 10.24 69.3511
678 1 9.94791 21.3716 51.8565
680 1 14.3867 22.4337 52.0288
763 1 11.958 24.1931 54.8515
765 1 18.7397 23.6302 53.5671
709 1 17.9382 5.98621 53.791
767 1 24.9158 23.7013 52.5002
754 1 28.2768 21.5466 54.5095
769 1 30.3169 23.508 51.2159
705 1 7.88177 6.2461 54.5526
2315 1 9.07885 28.2148 69.8258
692 1 9.81056 25.855 51.3941
770 1 33.7434 25.986 52.927
694 1 14.1846 26.0956 52.638
756 1 33.6636 21.6509 53.7862
1040 1 7.24483 26.5479 77.2356
768 1 27.7615 26.0948 54.3276
1118 1 31.0353 25.6666 78.9185
704 1 4.64199 7.78671 56.713
708 1 15.3172 8.31368 56.6986
710 1 21.4367 8.59851 55.8795
712 1 27.3669 7.90106 54.3662
1057 1 16.977 5.81125 77.3988
719 1 7.7427 10.5562 54.6346
718 1 4.62505 12.6627 57.3845
721 1 12.1816 10.2875 55.8952
722 1 15.7398 13.2088 56.5471
724 1 21.5127 12.8761 54.8804
795 1 24.8108 10.4381 56.7732
797 1 31.354 9.74931 55.7391
732 1 4.88528 17.3764 57.6362
1116 1 26.7497 25.9978 77.7395
735 1 11.8989 15.0641 54.9794
736 1 15.3042 17.1285 56.6878
809 1 25.4874 15.0251 57.161
811 1 31.3032 14.315 56.3375
749 1 12.4222 19.659 55.3477
738 1 21.6855 17.6892 55.3487
823 1 24.9902 18.9683 57.3615
825 1 31.8769 19.1129 56.2842
746 1 5.21711 21.8608 57.5651
748 1 9.16722 21.3122 58.5581
750 1 16.0495 21.8338 56.7871
752 1 21.7253 21.7574 55.5201
837 1 24.982 23.6299 57.2145
839 1 31.09 24.2475 56.4725
2251 1 26.107 28.1946 61.7216
760 1 4.99147 26.5261 57.6816
762 1 9.63947 26.5798 57.7698
2105 1 7.25842 27.8345 54.6666
764 1 15.7521 25.8738 56.5158
766 1 22.3463 26.2949 55.3513
706 1 9.01273 8.63054 58.1205
2245 1 8.21833 28.3287 65.0721
780 1 22.4498 8.02046 59.8138
782 1 28.0665 7.74814 59.0692
730 1 0.281196 17.4113 56.1913
787 1 2.50716 10.4379 59.87
789 1 6.32461 10.3725 60.8674
720 1 9.2533 12.6489 57.7879
791 1 13.1432 10.5024 59.4527
792 1 16.9823 12.4213 61.191
793 1 18.8592 10.2708 57.697
794 1 23.1337 12.8024 59.2677
796 1 28.3343 12.1384 58.4081
867 1 31.7908 10.1773 60.4138
801 1 2.35196 15.2819 59.8618
803 1 6.75391 14.8695 60.9497
734 1 9.45658 17.1588 58.1463
805 1 12.9408 15.0461 59.2499
807 1 19.1652 14.8902 58.1258
879 1 26.5563 14.5885 61.8984
881 1 32.2555 14.8573 61.0682
815 1 2.69274 19.9428 59.703
817 1 6.77122 19.4966 61.287
819 1 13.2616 19.0566 59.8144
821 1 18.7813 18.8263 57.9494
808 1 23.0965 16.4374 59.7828
810 1 28.7915 16.7438 59.0243
895 1 32.099 19.5336 60.8356
829 1 2.43628 24.6519 59.7202
831 1 7.1039 24.6627 60.7065
833 1 12.8782 23.7575 59.4128
835 1 19.8396 23.9258 58.2173
820 1 17.0654 21.5371 61.2756
822 1 22.1875 21.063 60.1009
824 1 28.5184 21.2334 59.0654
909 1 32.9482 23.979 60.7312
1091 1 32.9554 14.7421 75.4092
1038 1 1.07162 26.6318 78.4002
834 1 16.1244 25.5665 60.6996
836 1 22.8027 26.3644 59.9534
838 1 28.6124 26.0201 58.5446
2317 1 15.354 28.3766 68.8137
774 1 3.71799 8.28654 63.3594
776 1 10.5962 8.43339 62.4979
778 1 16.467 7.88453 61.2393
850 1 24.1315 8.53762 64.2283
852 1 29.3797 7.69166 63.624
788 1 4.01094 12.9167 63.161
790 1 10.6359 13.0702 62.6906
861 1 14.5781 10.7651 63.793
863 1 20.4979 10.2932 62.0469
865 1 26.3376 10.4648 61.534
864 1 23.6422 12.3393 63.9009
866 1 29.8096 11.9032 63.3293
937 1 33.0911 9.20603 65.033
802 1 4.58121 17.1929 63.6784
875 1 14.3704 15.3254 63.814
877 1 20.8315 14.9331 62.6952
880 1 29.6398 17.8038 63.3623
951 1 32.7176 14.3838 64.6986
804 1 10.2857 17.1352 62.8929
889 1 14.3033 19.3371 64.3934
806 1 17.3007 17.4124 61.6321
891 1 20.0378 19.665 63.1064
893 1 25.7152 18.6956 61.8107
878 1 23.2781 17.1696 64.43
816 1 4.15447 22.3283 63.4575
901 1 8.21132 23.9363 64.9643
818 1 10.7704 21.6619 62.8167
903 1 14.6916 23.5948 63.795
905 1 20.6909 24.1684 62.4831
892 1 23.6233 21.912 64.5503
907 1 26.2959 23.286 61.3425
894 1 30.3333 21.7056 63.408
964 1 33.8049 24.2185 64.9278
830 1 4.07244 26.3064 64.0246
832 1 10.5588 25.8169 62.331
775 1 6.79957 6.1118 60.6011
906 1 23.5637 26.3606 64.1126
1105 1 33.6185 19.3704 75.9059
908 1 29.729 25.9201 63.0343
913 1 2.57113 6.16342 70.5794
634 1 5.16626 7.92219 51.1399
844 1 5.02234 8.26776 67.8558
845 1 7.32284 6.20873 65.0102
846 1 11.3306 8.71776 66.8382
848 1 18.0864 8.17333 65.3232
1119 1 33.5516 24.1732 75.4175
783 1 31.0715 5.96111 56.5579
922 1 30.5517 7.56621 68.3715
857 1 1.92447 10.6669 66.4412
858 1 4.83541 13.1637 67.9262
859 1 7.76729 10.8083 65.2861
860 1 11.7264 12.9445 66.4679
931 1 15.1902 10.6173 68.1656
862 1 17.916 12.5152 65.3971
933 1 21.5937 10.1853 67.144
935 1 26.9311 10.207 66.4288
936 1 30.619 11.957 67.7809
871 1 1.7211 15.2768 66.3046
873 1 7.63975 14.6914 64.6071
947 1 21.5802 14.8182 67.0362
949 1 27.2962 14.8797 66.2101
950 1 30.4695 17.3728 67.7647
885 1 1.89562 20.0055 66.8251
872 1 5.68631 17.2369 68.0137
887 1 8.42964 19.1939 65.5148
874 1 11.4436 16.893 67.2035
959 1 15.1522 19.106 68.9691
876 1 18.2329 17.3327 65.7737
961 1 21.4678 18.8329 67.4691
963 1 27.2413 19.481 66.182
1033 1 33.688 19.4158 64.9138
899 1 1.56448 23.9554 66.9384
886 1 5.55007 21.9657 68.0265
888 1 11.8002 22.0942 67.2516
973 1 15.4628 23.7044 68.1975
890 1 17.9529 22.0343 65.6423
975 1 21.5058 23.5665 67.1469
977 1 27.5039 24.2324 65.7867
1035 1 30.9586 21.9667 68.1156
900 1 5.32567 26.5628 68.4993
902 1 11.191 26.4518 67.2719
904 1 17.5293 26.0858 65.4084
978 1 30.5345 26.445 67.8824
916 1 12.5711 8.02812 70.7905
918 1 18.6566 7.99076 69.8724
744 1 0.617617 22.1327 56.3161
920 1 24.4862 7.52226 69.5275
1042 1 13.7986 26.5309 75.3771
992 1 31.6932 8.19402 72.4814
927 1 2.88405 10.2604 71.0953
928 1 6.26917 12.6933 72.46
929 1 8.48163 10.6726 69.0362
930 1 12.2585 12.6037 71.1792
932 1 19.0023 12.6631 70.1142
1003 1 21.6294 10.0532 71.8327
934 1 24.2539 12.1538 68.6023
1005 1 27.8045 10.2062 71.0215
1006 1 31.4059 12.8087 72.193
941 1 2.63381 15.137 71.1141
943 1 8.71754 14.9266 69.2414
945 1 15.7262 15.2706 68.0922
1017 1 22.0362 14.3562 71.8122
1019 1 27.6481 14.5946 70.0849
955 1 2.69885 19.201 70.6391
957 1 8.95182 19.6724 70.1221
944 1 12.9594 17.2091 71.5779
946 1 19.3473 17.1134 70.5273
1031 1 22.6976 18.9683 71.6659
948 1 24.5253 16.6194 68.7804
1020 1 28.1316 19.2844 70.5513
969 1 2.84347 23.7676 71.5439
971 1 8.47585 24.3912 69.4048
958 1 13.0593 21.6967 71.5642
960 1 19.0373 20.9369 69.9107
1043 1 16.6288 24.0043 72.78
1045 1 22.0749 22.8786 71.8227
962 1 25.0241 21.2674 68.9163
1047 1 28.3953 24.0655 70.5259
1034 1 31.7032 21.5793 72.2485
1102 1 27.2806 21.3732 77.8121
970 1 6.36469 26.8434 72.5541
972 1 12.9002 26.4311 70.8309
974 1 18.857 25.54 69.7831
976 1 24.8331 25.9202 69.1422
1115 1 22.6335 23.5707 76.5028
914 1 6.23544 8.11713 72.3014
781 1 24.9465 6.32426 57.1255
988 1 19.2172 8.63746 74.5282
990 1 25.1969 7.93621 74.1266
1061 1 28.7934 6.2777 74.9905
1077 1 33.4218 10.0386 75.8766
1063 1 33.7412 6.1593 76.1958
997 1 3.85879 10.5403 75.6295
999 1 10.0597 10.3897 73.6385
1000 1 12.7354 12.5462 75.4529
1001 1 15.9825 10.2606 72.8423
1002 1 19.3708 12.6291 74.7965
1004 1 25.8194 12.4857 73.667
1075 1 28.8209 10.5547 75.5462
1011 1 4.10429 15.1152 75.5139
942 1 5.86849 16.9874 71.8754
1013 1 9.92559 15.0802 73.7321
1015 1 15.9759 14.9389 72.8376
1089 1 28.9427 14.9345 75.8021
1025 1 4.03815 19.5531 75.0463
1027 1 10.375 19.6461 74.656
1014 1 13.2687 17.0271 76.119
1029 1 16.4892 19.6638 73.0709
1016 1 19.5643 17.3708 74.7231
1018 1 25.5463 17.0641 73.3449
1103 1 28.9706 18.78 75.0672
1022 1 31.7419 16.8135 71.8876
956 1 6.30647 21.2681 72.4971
1041 1 10.0289 24.2691 73.9155
1028 1 13.8497 21.8127 75.5124
1030 1 19.8384 21.3179 74.6355
1032 1 25.5198 21.7232 73.4628
1117 1 28.9902 24.5362 74.8537
1044 1 20.1945 26.0727 74.7032
1046 1 25.882 26.3812 73.8371
1048 1 31.7468 26.4511 72.6417
982 1 1.04103 8.42285 78.3158
984 1 7.57219 7.99433 76.7018
986 1 13.2332 7.98793 75.8414
1058 1 20.3994 8.17619 79.052
915 1 8.95857 6.07685 68.9833
1060 1 26.7798 7.37568 78.393
1062 1 30.6457 7.78367 79.0151
996 1 1.21476 12.996 78.241
998 1 7.72973 12.7325 76.7502
2319 1 21.52 28.1689 67.1693
1071 1 16.9407 10.224 77.5023
777 1 12.4543 6.0498 59.5727
1073 1 23.1476 10.5355 76.3407
1074 1 26.3134 12.7467 78.3828
1076 1 31.0512 12.4845 78.9991
1010 1 1.12004 17.1069 78.4836
1012 1 7.26956 17.2108 76.9019
1083 1 10.9516 15.0288 78.7511
1085 1 16.56 14.7714 77.1991
1087 1 23.2283 14.4979 76.2312
1090 1 30.8469 17.4082 78.7198
1097 1 10.8852 19.0862 78.7239
1099 1 17.0835 19.5658 77.828
1113 1 17.1202 24.0883 77.7596
1101 1 23.5031 19.2769 76.6068
1088 1 26.2715 17.3187 78.5319
2389 1 22.4824 28.2085 71.0905
1039 1 3.74117 24.1582 75.4139
1024 1 1.48044 22.0627 78.1933
1026 1 7.74388 21.8953 76.6965
1111 1 11.6421 23.7096 78.376
1086 1 20.9273 17.4525 79.1941
2247 1 13.6767 28.1061 63.6488
2463 1 33.622 28.0288 76.0505
2175 1 6.91159 28.3169 61.43
2391 1 27.9896 28.182 70.2882
2249 1 19.5246 28.3336 62.6767
2385 1 10.632 28.2574 74.3102
773 1 2.2346 6.155 59.8731
991 1 28.0603 5.84603 70.3402
1052 1 2.83852 8.38394 82.8831
1054 1 8.58657 8.20973 81.3127