ITEM: TIMESTEP
200000
ITEM: NUMBER OF ATOMS
16000
ITEM: BOX BOUNDS pp pp pp
4.4122168551916729e-01 1.0175877831448616e+02
5.7505661439009899e+00 9.6449433856097968e+01
-5.3098431747216210e+00 1.0750984317472151e+02
ITEM: ATOMS id type x y z
351 1 1.30193 6.23198 22.2842
6 1 15.1098 8.24321 -4.59359
81 1 25.8781 6.16783 -0.0331881
8 1 18.8128 8.00877 -3.45516
10 1 23.7088 7.5799 -3.27096
12 1 28.4418 8.0833 -2.99568
14 1 32.4358 8.23394 -1.83635
85 1 3.35999 9.84862 -3.19112
87 1 8.03151 9.92551 -2.74721
10969 1 0.433008 17.4671 5.89474
20 1 15.1901 12.5753 -5.07477
22 1 19.4687 12.157 -4.24843
24 1 23.9783 12.0941 -3.64262
26 1 28.1704 12.6007 -3.24267
334 1 26.4268 21.5357 22.204
99 1 3.68386 14.4926 -3.18055
101 1 8.3807 14.8083 -2.66049
32 1 10.2943 17.2662 -4.96658
34 1 14.922 16.8971 -4.75041
103 1 12.1757 14.7544 -1.44367
36 1 19.4229 16.7248 -4.08271
38 1 23.7998 16.621 -2.92252
42 1 32.5826 17.1426 -1.9624
1613 1 6.95897 28.3842 9.49531
113 1 3.32519 19.2937 -3.31673
115 1 7.99735 19.4982 -2.6244
40 1 27.9959 17.0366 -3.05203
127 1 3.43314 24.008 -2.86399
129 1 8.06064 24.2253 -2.7492
147 1 16.938 5.97626 4.6385
48 1 14.9359 21.62 -4.63241
50 1 19.8144 21.3007 -4.13538
52 1 24.4921 21.4363 -3.20673
54 1 28.6248 21.5124 -2.66936
56 1 33.2547 21.4299 -2.23022
287 1 15.559 6.38237 17.2777
4 1 10.4081 8.07255 -5.50632
62 1 15.0116 25.8937 -4.16677
64 1 19.5879 25.8071 -3.98207
66 1 24.1981 26.0398 -3.24757
68 1 28.9019 25.9266 -2.34848
70 1 33.5386 25.7499 -2.61011
10878 1 1.37385 7.57402 0.161845
72 1 5.29752 8.04864 0.41634
74 1 10.2889 7.89767 0.787444
78 1 19.0512 7.88878 2.05696
1479 1 21.6698 28.2731 -1.18697
10891 1 1.45117 12.0712 -0.4006
86 1 5.95428 12.7472 0.406175
88 1 9.78778 12.5529 0.651226
89 1 12.7895 10.0772 -1.91048
90 1 13.4253 12.6062 1.73527
91 1 16.7135 10.4922 -0.914158
93 1 21.594 10.5943 -0.758807
95 1 25.9621 10.1773 0.327821
28 1 33.7318 12.3354 -1.33528
97 1 30.1429 10.3232 0.671417
100 1 5.56002 17.3805 0.0549108
104 1 13.869 17.2662 1.47751
105 1 16.7798 14.3922 -1.07356
107 1 21.4986 14.4752 -0.495753
109 1 25.5806 14.5472 0.200063
111 1 30.2335 14.3397 0.769025
10904 1 1.26715 16.8734 -0.274437
102 1 10.2226 17.1491 0.888237
117 1 11.8026 19.3839 -1.91565
119 1 16.7395 18.9793 -1.6978
121 1 21.3921 19.0984 -0.384394
123 1 26.1853 19.2941 -0.243571
125 1 30.5811 19.8436 1.15513
10917 1 0.695165 22.1055 -0.439022
114 1 5.9437 22.0243 0.819176
116 1 10.4548 22.2252 0.877232
131 1 12.6183 24.0836 -1.44259
118 1 14.1996 21.8802 1.12241
133 1 17.6556 23.4515 -1.63121
135 1 21.4827 23.6527 -0.337526
137 1 25.9597 23.4547 0.168604
139 1 30.852 23.9774 0.587476
10930 1 0.724087 26.4004 -0.714074
128 1 5.42481 26.5486 -0.0427392
130 1 10.3267 26.9854 1.24672
132 1 14.7168 26.2364 1.27043
155 1 3.33498 10.0828 3.5207
76 1 14.5347 8.09138 1.41142
409 1 5.94583 23.6021 22.4758
367 1 6.08799 10.3208 22.7972
80 1 22.9748 7.59077 2.52337
82 1 27.7808 8.18881 3.47925
84 1 32.3445 8.30214 4.51658
157 1 7.03982 9.82721 3.69942
159 1 11.4911 10.3313 4.23771
161 1 16.1659 10.5055 4.83133
92 1 19.2319 12.5513 2.36395
163 1 20.8235 10.0657 5.76466
94 1 23.9621 12.8026 3.2033
96 1 27.8313 12.9011 3.98881
98 1 32.2892 12.5595 4.79792
169 1 2.75046 15.175 2.88305
171 1 7.16394 14.7352 3.71779
173 1 11.7119 15.4336 4.90969
175 1 16.0386 15.0382 4.91238
112 1 32.2187 17.1385 4.50003
183 1 2.56024 19.4621 2.97345
185 1 7.10379 19.3298 3.93448
187 1 12.0735 19.8463 4.20376
106 1 18.9589 17.1831 2.05693
108 1 23.5065 16.9236 3.08949
110 1 28.046 16.8232 3.39647
197 1 2.98609 24.0965 3.31429
199 1 7.91303 24.9654 3.6724
201 1 12.4691 23.7761 4.14714
203 1 15.9937 24.4211 4.42703
120 1 18.9713 21.5323 2.38354
122 1 23.4126 21.7453 2.74307
124 1 27.706 21.671 3.17351
126 1 32.4405 21.9442 4.15139
18 1 10.4347 12.5612 -5.21785
289 1 20.1341 6.06686 18.0955
10995 1 0.681816 26.5672 5.94287
134 1 19.1623 26.2877 1.84495
136 1 23.88 26.2045 2.53709
138 1 28.477 26.3123 3.51233
140 1 32.7336 26.7935 3.8989
142 1 5.1976 7.92522 6.52489
144 1 8.99829 8.40527 6.87884
146 1 13.8726 8.08925 7.90319
148 1 18.2759 7.68892 8.16616
83 1 30.8639 5.86523 0.790001
156 1 5.17372 12.3301 6.74468
158 1 9.29873 12.3662 7.10291
160 1 13.9827 12.7734 7.23892
162 1 17.8283 12.4392 8.55489
165 1 25.4337 9.54458 6.1718
167 1 30.1899 10.0927 6.93592
170 1 4.74189 17.4331 6.43365
172 1 9.24294 17.502 7.20917
174 1 13.7368 17.2138 8.39526
176 1 17.6296 17.2954 8.67393
177 1 20.5338 14.7532 5.86774
179 1 25.0745 15.3195 6.11773
181 1 29.9312 14.8073 7.7177
189 1 16.3744 19.6592 4.68329
191 1 20.9752 19.4204 5.89013
193 1 25.2918 19.3565 6.24995
195 1 30.0041 19.7258 6.49389
184 1 5.05776 21.9796 6.32225
186 1 8.97244 21.9086 6.88789
188 1 13.6933 21.8769 7.89065
190 1 17.645 21.8415 7.81378
205 1 20.7811 24.1415 5.51923
207 1 25.0539 24.564 5.84242
209 1 29.6629 24.3748 6.641
395 1 5.59559 18.9291 22.2295
198 1 4.45172 26.41 6.804
200 1 9.19762 26.3955 6.81856
202 1 13.4122 25.7562 7.80055
1477 1 16.7993 28.0872 -1.61084
204 1 18.2053 26.4683 8.20594
10956 1 0.674638 12.8652 6.17631
212 1 4.0388 7.99347 12.9215
150 1 23.0136 7.97479 8.91284
152 1 27.1477 7.66243 9.74685
154 1 32.2138 8.86205 10.069
225 1 2.6615 10.155 9.49944
227 1 6.48939 10.3289 10.4786
229 1 11.8822 11.3096 11.0605
231 1 15.7076 10.019 10.7451
233 1 20.2104 10.192 11.9386
164 1 23.1387 12.5533 9.1037
166 1 27.1458 12.3682 9.21725
168 1 31.5078 12.9254 10.4749
239 1 2.34419 14.912 9.31426
241 1 6.72916 15.1043 10.1989
243 1 11.1254 14.9078 10.4955
245 1 15.578 14.3584 11.2958
247 1 19.6079 14.4107 11.6802
178 1 22.3333 17.4719 9.27132
180 1 27.4751 17.0328 9.69319
253 1 1.86883 19.592 9.25241
255 1 6.47831 19.8856 10.2417
257 1 10.9131 19.1265 10.3605
259 1 15.3229 20.1363 11.5878
261 1 19.8176 19.7954 11.6694
182 1 31.8627 17.5995 10.7523
267 1 2.38731 24.3049 9.35035
269 1 7.06599 23.8557 9.73354
271 1 11.0246 23.7645 10.7791
273 1 15.4239 24.8314 11.0018
192 1 22.8181 22.064 9.11957
194 1 27.1554 22.4247 9.52026
196 1 31.7318 22.068 10.124
46 1 10.4158 21.8416 -4.90411
5809 1 33.5276 10.7157 13.6952
5822 1 33.8899 14.8046 13.9539
348 1 26.9972 26.5734 21.8523
206 1 22.7065 26.0672 9.38644
208 1 26.9316 26.4201 9.45005
210 1 32.0555 26.1144 10.1006
214 1 9.46393 7.94747 13.0888
216 1 13.8291 8.152 13.5607
218 1 17.816 8.44416 14.7774
220 1 22.5107 7.91875 15.2226
222 1 26.5338 8.24259 15.6705
1693 1 29.1031 28.5597 19.3737
295 1 1.64693 10.5326 15.868
226 1 4.59515 12.8702 12.8547
228 1 9.05545 12.663 13.1427
230 1 13.6505 12.6531 14.3425
232 1 18.2329 13.1909 14.9713
234 1 22.2416 12.6692 15.1272
235 1 24.8976 10.0909 12.6612
237 1 29.7077 10.4794 13.4209
308 1 30.4389 12.6459 22.8056
309 1 1.37796 14.957 16.1158
242 1 8.58107 16.9938 13.5754
246 1 17.6495 17.1537 14.7964
248 1 22.1267 17.2102 15.4151
249 1 24.4749 14.7593 12.3315
251 1 28.9519 14.9122 12.8454
285 1 11.0922 6.07277 16.8957
240 1 3.98538 17.2939 13.3054
323 1 1.07731 19.6019 16.1436
325 1 5.7083 19.4708 16.5285
244 1 13.1031 17.0531 14.2127
263 1 24.593 19.629 12.0261
265 1 29.1868 19.4493 13.3036
5835 1 33.9316 19.0039 13.9408
254 1 4.09874 21.8889 12.8558
337 1 1.03231 23.9608 15.8412
256 1 8.70989 21.7383 13.4423
258 1 13.2495 21.7685 14.2558
260 1 17.7182 21.1427 14.8604
275 1 19.85 23.9651 11.9147
262 1 22.4249 21.669 15.1605
277 1 24.4965 24.2362 12.9901
279 1 29.0464 23.7161 12.7503
5848 1 33.6449 24.0635 13.5812
1685 1 10.6337 28.1487 17.2719
268 1 4.48594 26.4132 12.388
270 1 8.76667 25.8697 13.5606
272 1 13.4066 25.7508 14.1994
274 1 18.0871 25.7349 14.933
276 1 22.1105 26.2156 15.7906
350 1 30.9064 26.3985 22.5742
1547 1 16.3568 28.306 5.05081
282 1 3.25149 8.11739 19.3832
224 1 30.8212 8.18096 16.5243
296 1 4.13402 12.5459 19.2939
297 1 6.32363 10.1169 16.0971
299 1 11.1291 10.2312 16.6235
301 1 15.7232 10.1718 17.5186
303 1 20.132 10.7908 17.9585
305 1 24.3136 10.6511 18.5758
236 1 26.6837 12.9432 16.0355
238 1 31.2758 12.5309 17.1172
311 1 5.9941 14.8642 16.7772
313 1 10.7868 14.6522 17.0644
315 1 15.1577 14.749 17.9731
317 1 19.697 15.3497 17.9114
319 1 24.0663 15.2396 19.2546
250 1 26.1616 17.3126 15.8893
252 1 31.1411 17.338 16.7244
327 1 9.86757 19.1382 16.4153
329 1 15.387 19.4072 17.6927
331 1 20.0068 20.0146 18.4943
333 1 24.7392 19.7039 18.6162
324 1 3.82571 21.4466 20.0577
339 1 6.44952 23.9615 16.3826
341 1 10.5225 23.8599 17.3782
343 1 15.2773 23.5518 18.0177
345 1 20.1142 23.9887 18.7794
347 1 24.6528 24.419 18.5954
264 1 26.6979 21.2274 15.9273
266 1 31.2911 21.8071 16.4709
5796 1 33.8152 6.0606 13.7318
1687 1 15.4961 28.1407 17.4257
145 1 11.9644 5.72218 4.56208
278 1 27.283 26.6741 15.7745
283 1 6.61232 5.98619 16.5407
280 1 31.1397 26.5781 16.0344
365 1 1.34174 10.1642 22.332
284 1 8.4148 8.17822 19.8031
286 1 13.0995 8.37353 20.3025
288 1 17.3927 8.42627 21.1324
290 1 21.9527 8.3557 21.5327
292 1 25.602 8.50841 22.4113
293 1 28.3075 6.11367 19.6533
298 1 8.13191 12.4795 19.2333
300 1 12.7912 13.0967 21.1112
302 1 17.525 13.0282 20.8851
304 1 22.0381 12.9347 21.7085
306 1 25.8994 12.3668 22.4567
307 1 28.6184 10.5816 19.3506
5874 1 33.2363 10.1072 19.644
379 1 0.986484 14.7937 22.0126
381 1 5.81977 14.9324 22.4286
312 1 8.58654 16.5829 19.5362
314 1 12.8737 17.0862 21.2327
316 1 17.3912 17.3803 21.1085
318 1 21.653 17.4033 22.4684
321 1 28.9322 15.2081 19.1784
320 1 26.2603 17.0359 22.033
5887 1 33.5825 14.8916 20.1597
393 1 1.04512 19.5407 22.3634
310 1 3.73385 17.4212 19.1027
335 1 28.5937 19.9333 19.2595
5900 1 32.9018 19.0307 20.8351
407 1 1.26801 23.9569 22.1958
291 1 23.9077 6.32205 18.6864
326 1 8.28586 21.2448 19.4089
328 1 12.9686 21.2174 20.2772
330 1 17.5115 22.0956 20.9099
332 1 21.807 22.0693 21.6674
349 1 29.1794 23.9779 18.8192
5913 1 33.2536 24.0995 19.3931
338 1 4.3281 25.7812 19.1946
7161 1 33.7071 28.4098 19.4701
340 1 8.44906 26.6582 19.8041
342 1 12.8164 25.9565 20.5278
344 1 17.4382 26.6675 20.6473
346 1 21.6028 26.3678 21.5857
1619 1 20.764 28.4411 12.1882
1481 1 26.3936 28.1746 -0.430428
1753 1 6.26462 28.0097 22.5494
1617 1 16.2066 28.4727 12.0973
71 1 2.84244 5.5971 -2.89883
79 1 21.2656 5.85022 -1.26034
336 1 30.6206 21.7962 22.7165
353 1 6.03035 6.15517 22.6081
41 1 31.609 14.5087 -4.55805
352 1 3.29019 8.03782 25.2352
354 1 7.67534 7.84881 26.5993
5927 1 33.8933 8.01697 29.9351
366 1 3.33088 12.8882 25.5028
368 1 7.44235 13.0471 26.2144
369 1 10.3109 10.3918 23.4716
371 1 14.7258 10.2814 23.9287
373 1 19.5035 10.2837 24.3326
375 1 23.8958 10.4192 25.3207
377 1 27.9684 10.0428 25.6901
5939 1 32.657 10.377 26.1695
477 1 0.579431 23.8645 28.5338
380 1 3.18934 16.7965 25.6251
1971 1 21.5167 27.9766 44.046
385 1 14.9313 15.0034 24.4097
387 1 19.0877 15.0308 24.8539
389 1 23.5029 15.4039 25.7756
391 1 27.5542 15.3337 25.6879
6134 1 33.6968 9.93287 41.9934
5952 1 32.3653 14.8449 26.4785
563 1 3.61309 6.1354 41.1586
397 1 9.3794 18.9317 23.0898
399 1 15.0925 19.6126 24.5401
401 1 18.9573 19.7354 24.5257
403 1 23.6881 19.299 25.0068
405 1 28.2862 19.6062 26.1188
5965 1 32.7822 19.2457 25.4849
394 1 3.19005 21.2503 25.4396
396 1 7.65408 21.4706 26.1109
411 1 10.0595 23.6963 22.9966
413 1 15.3228 24.0717 23.7281
398 1 12.2799 21.9347 26.6021
415 1 19.2881 24.0353 24.3724
417 1 24.322 24.0275 24.7949
435 1 0.568808 10.3338 27.9651
419 1 27.9444 24.1425 25.5688
361 1 23.7773 6.08201 25.6588
408 1 3.28473 25.8855 25.5187
410 1 7.86037 26.3144 25.955
1821 1 0.473089 28.4809 27.9314
1757 1 15.3845 28.0215 23.5774
449 1 0.784363 14.6104 27.917
2033 1 3.1892 28.2844 47.9219
700 1 32.726 26.4315 48.3187
356 1 12.3396 8.0403 27.037
358 1 16.9294 7.6532 27.3475
360 1 20.8902 8.56205 27.5599
362 1 25.4406 7.84731 29.1619
364 1 30.1059 8.08339 29.4833
322 1 30.67 16.9176 23.1393
437 1 4.79857 10.2649 28.9036
439 1 9.52935 10.5739 29.4319
370 1 12.3992 12.3909 26.7143
372 1 16.6459 12.386 27.4977
374 1 21.743 12.5233 27.8891
376 1 25.7475 12.4988 28.8463
378 1 29.8228 12.4712 29.2272
451 1 4.96656 15.0163 29.603
453 1 9.62223 15.2092 29.7831
455 1 13.8361 14.766 30.211
386 1 16.4903 16.9119 28.141
388 1 20.8797 17.6804 27.2351
392 1 30.3428 17.1744 28.8046
382 1 7.54251 16.9856 26.0844
465 1 5.08203 19.0339 29.1878
467 1 9.80456 19.1545 29.5469
384 1 12.4242 17.3867 26.3797
390 1 25.7815 17.33 28.5297
423 1 5.37872 5.58402 29.4057
479 1 5.51132 23.7561 28.9363
481 1 9.74987 23.8189 29.1064
483 1 14.0883 23.9671 30.5443
400 1 16.6206 21.6852 27.3342
402 1 21.1153 22.4112 27.6015
404 1 25.6443 22.1043 28.1306
406 1 30.106 21.5949 28.8053
5978 1 32.6181 23.7776 25.8603
1969 1 17.5531 27.8956 43.4659
682 1 20.3568 21.2415 50.8443
698 1 26.3899 26.1275 49.9298
412 1 12.4177 25.853 26.6339
414 1 16.9915 26.3457 27.6901
416 1 20.9951 26.4424 28.0735
418 1 25.4784 26.6248 28.6585
420 1 30.1913 26.296 28.7718
422 1 3.04013 8.35375 31.6224
424 1 7.15662 8.65493 32.2236
426 1 11.9206 7.80967 32.3035
428 1 16.3529 7.65933 33.7781
294 1 31.0225 8.51318 22.7644
646 1 1.2738 12.5565 50.2716
436 1 2.41175 12.9507 31.5539
438 1 7.74635 12.8816 32.4918
441 1 14.1373 10.4206 30.6626
440 1 11.9345 12.5945 32.8691
443 1 18.5367 10.248 30.5519
445 1 23.4928 10.1264 31.616
447 1 27.9344 9.96655 32.6156
6004 1 32.2179 10.1215 32.5885
452 1 7.39309 16.9184 32.7242
454 1 12.2028 17.2514 32.9932
457 1 18.5417 14.9634 30.96
459 1 23.2166 15.3175 31.5356
461 1 27.6332 15.5433 31.9486
6017 1 32.2262 15.1666 32.1204
450 1 2.71318 16.6419 32.3253
469 1 14.5792 19.5259 30.1181
471 1 18.8121 19.5802 30.7816
473 1 22.6933 19.7915 31.0464
475 1 27.504 19.8055 31.7134
6030 1 32.0707 19.7068 32.5597
464 1 2.9199 21.2972 31.5096
466 1 7.6362 21.4392 32.4085
468 1 11.6617 21.8447 33.075
485 1 18.6293 24.1126 31.0201
470 1 16.0562 21.4928 34.0666
487 1 22.7912 23.8114 31.5137
489 1 27.5842 24.0962 31.9975
6043 1 31.7919 23.5156 32.1111
478 1 2.90075 26.6459 31.5474
480 1 7.43992 26.0167 32.6368
482 1 11.2633 25.8428 32.8486
484 1 15.607 26.1601 34.1406
6160 1 34.2372 18.2847 40.8742
1759 1 19.8245 28.6714 24.1103
430 1 20.0798 7.75278 34.7388
432 1 24.7122 7.60735 35.064
434 1 29.3077 7.85248 35.6236
2039 1 16.623 27.7852 48.9656
507 1 5.32582 10.3114 35.3218
509 1 9.2505 10.5331 36.2177
511 1 13.809 10.1056 35.9074
442 1 15.6189 12.2471 33.6551
444 1 20.1804 12.2699 33.853
446 1 25.1997 12.9693 34.8928
448 1 29.9887 12.0118 35.3822
6069 1 32.9386 10.3802 37.3236
521 1 4.77067 14.5112 35.5286
523 1 9.55103 14.9882 36.2115
525 1 13.7586 14.35 36.4305
456 1 16.504 16.7173 33.5728
460 1 25.3528 16.9329 34.8822
462 1 30.7643 16.322 35.625
535 1 4.6365 19.5149 35.3425
537 1 9.27143 19.1918 36.1928
539 1 13.8728 18.7021 36.9078
541 1 18.1614 19.025 37.657
458 1 20.8635 17.0893 34.3931
549 1 4.35052 23.759 34.8933
551 1 9.07935 22.8967 35.7858
553 1 13.2045 24.0251 36.9364
472 1 20.2276 21.2285 34.4595
474 1 24.9638 21.3592 34.8608
476 1 29.3316 21.1576 35.1315
696 1 20.2936 25.8229 50.8274
463 1 0.75598 19.1441 28.7315
486 1 20.4059 25.8391 34.5046
488 1 25.0229 26.4917 34.6056
490 1 29.5865 25.9585 35.4711
492 1 2.40147 7.95797 37.9379
494 1 6.66708 7.99324 39.1361
496 1 11.3061 7.88496 39.2497
498 1 15.3776 7.80324 39.4441
500 1 20.2001 7.88722 39.7041
565 1 8.27906 5.89083 42.3662
504 1 30.5342 7.71057 40.0728
506 1 2.24629 12.6034 37.9904
508 1 6.79065 12.6063 38.9911
510 1 11.2868 12.045 39.397
513 1 18.3633 10.1467 37.1448
512 1 15.9403 11.9857 39.8295
515 1 22.1661 10.6063 37.7788
517 1 26.9206 9.85451 38.1218
518 1 30.1257 12.2281 40.445
520 1 1.98659 17.2261 38.1239
522 1 6.298 17.2444 38.8116
524 1 11.1327 16.9096 39.2614
527 1 17.9692 15.0129 36.7431
529 1 22.5684 14.6128 37.9704
531 1 27.3982 14.3362 38.4503
6082 1 33.3831 14.4143 37.791
532 1 30.5336 16.9414 40.2207
526 1 15.6304 16.6716 40.2992
543 1 22.9696 19.3793 37.8723
528 1 20.2747 16.4447 40.7647
545 1 26.9733 19.2298 38.4833
6095 1 33.2796 19.2098 37.0864
534 1 2.0583 21.4246 37.8706
536 1 6.52177 21.7768 39.1993
538 1 10.5811 21.5376 39.8731
540 1 15.0372 21.6656 39.9681
542 1 19.8019 21.2064 40.3817
557 1 22.5383 23.8281 37.6559
559 1 26.5019 24.2448 37.3481
546 1 30.8594 21.5097 39.5292
6108 1 33.3635 23.7061 36.4847
548 1 2.09555 25.702 37.3719
550 1 6.63837 26.3119 38.1239
552 1 10.0813 26.1126 39.5844
555 1 17.9338 23.4454 37.7697
554 1 15.7046 26.4057 40.1619
556 1 20.1858 25.9047 40.0689
560 1 31.0701 25.9197 39.8111
6173 1 33.7658 23.5318 41.2747
562 1 1.66336 7.85343 44.3547
583 1 18.11 9.15167 43.7164
5966 1 34.035 21.7079 29.206
502 1 24.117 7.79863 40.9005
577 1 4.26184 10.6312 41.7704
579 1 8.77758 9.83536 42.611
581 1 13.3922 9.85334 43.0683
514 1 19.7398 12.3004 40.9437
585 1 21.899 10.2457 43.9391
516 1 25.2954 12.252 41.0174
587 1 28.4287 9.38282 42.4648
591 1 4.2042 14.9959 41.6104
593 1 8.66372 14.418 41.7027
595 1 13.0741 14.3351 42.7629
597 1 17.6347 14.2781 43.9239
599 1 22.3176 14.4295 44.0166
530 1 24.9069 17.0653 40.9557
601 1 28.1632 14.3119 43.1076
5979 1 34.2688 26.4166 29.4149
605 1 3.70501 19.6632 41.8577
607 1 8.12503 18.9698 41.8355
609 1 12.4092 19.0509 42.6136
611 1 17.1478 18.8008 43.225
613 1 22.0086 19.207 43.9318
615 1 28.461 19.3244 43.0153
6147 1 34.2344 14.2944 41.7729
619 1 4.20701 24.0462 41.2456
621 1 8.05548 24.0081 42.7325
623 1 12.5528 23.685 42.917
625 1 17.1098 23.4759 43.0643
627 1 21.9655 23.5209 43.6764
544 1 24.9953 21.521 41.3147
629 1 28.002 23.8985 42.8916
383 1 10.3874 14.8184 23.4299
618 1 1.47221 26.0828 44.2025
674 1 1.03631 21.7446 50.651
558 1 24.6201 26.1678 41.159
564 1 5.92772 7.97901 44.8976
566 1 10.6276 7.8688 45.2021
568 1 14.9934 8.07885 46.0506
570 1 19.3814 8.00543 47.3506
572 1 25.4886 7.79961 45.2861
574 1 31.8946 7.45154 44.2868
576 1 1.9224 12.1325 44.6244
578 1 6.17175 12.8999 45.2144
580 1 10.5756 12.3985 45.3987
582 1 15.2915 12.5334 46.4597
584 1 19.4262 12.0686 47.5005
586 1 26.0365 12.1214 45.4121
657 1 28.8345 10.3852 47.2367
588 1 31.7093 11.8404 44.7832
590 1 1.91244 17.1278 44.091
661 1 3.19268 14.9347 48.0587
671 1 29.1364 14.9931 46.9044
592 1 6.58405 17.2322 44.9277
594 1 10.4531 16.6879 45.2849
596 1 15.106 16.6502 46.4201
598 1 19.6875 16.442 46.5875
600 1 25.6935 16.9459 45.7989
685 1 29.4336 19.622 47.1465
602 1 31.9618 16.8262 44.9131
689 1 2.94623 23.6421 47.7689
604 1 0.895605 21.4977 44.283
606 1 5.97595 21.8738 45.1625
608 1 10.393 21.4216 45.8994
610 1 14.9429 21.0483 45.5148
612 1 19.4289 21.3654 46.1737
614 1 25.4608 21.7053 46.0592
699 1 29.204 24.0961 47.8376
616 1 31.5865 22.4874 44.1312
620 1 5.91983 26.0963 45.0975
622 1 9.82283 26.1153 45.9188
624 1 14.4107 25.8808 46.2946
626 1 18.7588 25.1741 46.4957
628 1 25.6989 25.8986 45.6316
1967 1 12.4465 28.118 42.8753
630 1 31.3004 26.3864 44.4572
632 1 1.20025 7.64761 50.3442
2041 1 22.4403 28.3281 48.6507
1963 1 4.05492 27.9597 41.1816
642 1 26.6286 8.19651 49.8073
644 1 32.8218 8.17731 48.8148
359 1 19.1863 5.97105 24.6519
647 1 3.63818 10.6357 47.8581
1901 1 22.6521 28.3176 37.5202
649 1 8.02246 9.98628 48.2986
651 1 12.6187 9.97372 48.6161
653 1 17.3235 10.0011 49.8416
655 1 23.3311 10.1033 48.7125
656 1 26.3815 12.2282 49.6926
658 1 32.8814 12.1573 49.3676
690 1 5.15495 26.1437 50.9942
663 1 7.77064 14.5065 48.7368
665 1 11.8807 14.2547 48.9749
667 1 17.2476 14.4736 49.8388
7356 1 33.0818 28.2905 37.365
670 1 26.5268 16.9642 49.7062
669 1 23.4605 14.5391 48.3301
675 1 3.59084 19.2941 47.6705
677 1 7.94865 19.2296 48.196
679 1 12.553 19.0782 49.0895
681 1 17.0795 19.0131 48.5607
683 1 22.9137 19.113 48.5475
672 1 32.9859 16.9799 48.8537
7291 1 32.0669 28.2254 32.5707
691 1 7.94527 23.945 48.9102
1825 1 9.42242 28.3064 29.2742
693 1 12.5989 23.6832 48.9151
695 1 16.5591 23.2206 49.4213
1755 1 10.6889 28.1299 23.8877
684 1 26.6226 21.8362 49.8743
697 1 23.0612 23.7362 48.204
686 1 32.8135 21.443 48.6144
1827 1 14.0536 28.3963 30.2797
1899 1 18.7328 27.9763 37.1086
2037 1 11.8524 28.1971 49.0261
1893 1 5.23327 28.4212 34.9172
431 1 22.9921 6.06645 31.7238
688 1 0.616972 26.2299 51.0063
728 1 33.9795 12.5867 53.187
636 1 10.2498 7.4647 51.4852
638 1 14.774 7.33795 52.677
723 1 17.9515 10.1579 54.5074
716 1 0.228536 12.465 56.567
1049 1 33.6885 23.7751 69.5886
713 1 30.9302 5.81208 51.3352
717 1 2.89124 9.93711 54.1738
719 1 7.51552 10.39 55.2138
650 1 9.64119 11.3178 51.6427
652 1 14.0535 11.9696 52.5275
2109 1 18.1273 28.3835 53.5813
725 1 24.0376 9.87492 53.164
983 1 3.99613 5.74266 75.4794
727 1 30.1346 10.5578 51.4427
731 1 2.72398 14.6487 54.0471
2463 1 33.5699 28.0417 75.8603
733 1 7.41843 14.2896 54.5435
664 1 10.0348 16.7502 51.6178
666 1 14.5336 16.7234 51.9401
737 1 17.5056 14.4187 54.1678
739 1 24.3938 14.5926 52.9851
741 1 29.8567 14.7082 51.7493
745 1 2.94872 19.4201 54.4092
747 1 7.56092 18.6493 54.3322
751 1 18.139 19.0784 54.2737
753 1 24.1795 19.3329 52.6949
755 1 30.1424 19.5556 51.5124
742 1 33.8256 17.096 52.9732
759 1 2.78679 23.8401 54.3666
761 1 7.50816 24.0153 54.5782
678 1 9.57811 21.6057 51.8764
680 1 13.4556 21.2747 52.1512
765 1 18.6119 23.6396 53.7404
767 1 23.6468 23.5225 52.643
769 1 30.2993 24.0056 51.5403
1097 1 11.3602 19.5952 78.4297
662 1 5.50103 16.8278 51.24
692 1 10.2626 26.2134 52.196
694 1 15.0838 26.229 52.1235
773 1 2.32978 6.10225 60.3147
770 1 33.5772 26.1376 52.9077
768 1 27.5429 26.169 54.2588
668 1 20.4013 16.6052 51.3463
704 1 4.89336 7.28049 57.4671
1105 1 33.9087 19.2273 75.7989
706 1 9.42474 7.46689 57.8244
708 1 15.2875 7.81402 57.0909
710 1 21.5306 7.65453 55.4004
712 1 27.852 7.72758 54.1822
634 1 5.5558 7.52187 51.069
720 1 9.46756 12.3444 58.2473
721 1 12.2904 10.2041 55.4702
722 1 15.3381 12.8428 57.0654
724 1 21.5997 12.9578 55.7109
795 1 25.183 10.2578 57.2853
726 1 28.0192 11.8341 54.3367
797 1 31.4044 9.98123 56.203
734 1 9.55782 17.1187 58.4492
735 1 11.817 15.2339 55.2764
736 1 15.5427 17.407 56.801
738 1 21.8068 16.8414 55.7866
809 1 25.4163 14.2357 57.5415
740 1 27.4015 16.5812 54.2737
811 1 31.3232 14.7873 56.1153
1118 1 30.9781 26.2992 78.9762
732 1 4.95769 16.6541 57.7701
749 1 12.088 19.2507 55.0724
823 1 25.6441 19.113 57.1234
825 1 31.0492 19.1927 56.1578
746 1 5.21452 21.3902 57.7064
763 1 11.7469 23.8379 54.9545
750 1 15.4322 21.2882 56.3426
835 1 18.7475 23.7192 57.9284
752 1 21.9709 21.2087 55.157
837 1 25.4298 23.8203 57.137
754 1 27.9455 22.024 54.359
839 1 30.9864 23.8442 55.7967
847 1 13.7981 5.65322 63.9616
760 1 4.85493 25.5049 58.2543
762 1 9.06499 26.2983 58.0405
764 1 15.7777 25.9127 56.6241
756 1 33.1304 21.7628 52.6683
1077 1 33.6283 9.94759 75.8022
766 1 20.9157 26.027 55.3912
2107 1 11.7739 28.2485 55.0332
1083 1 10.4965 15.0288 78.947
2253 1 32.3438 28.401 60.5145
2317 1 15.0478 28.2921 68.7194
778 1 16.3674 7.94551 61.4462
780 1 22.7795 7.90527 59.835
782 1 28.7217 7.78755 58.9682
787 1 2.44793 10.1048 60.0009
789 1 7.03857 10.0184 60.8032
791 1 12.4223 10.255 59.939
793 1 19.0009 10.1649 58.3288
794 1 22.8081 12.5791 60.1522
796 1 29.1699 12.4502 58.5072
867 1 32.5038 10.3947 60.8004
801 1 2.27912 14.6222 59.8419
718 1 4.9301 12.024 57.507
803 1 7.16953 14.6434 60.3605
805 1 13.2012 14.8275 59.6989
807 1 18.7581 14.7049 58.4505
806 1 16.7244 17.1386 61.2558
808 1 22.6099 16.9496 59.9043
810 1 28.2435 16.9173 58.9404
881 1 32.7631 14.2713 60.7031
815 1 2.12448 18.4965 59.9449
817 1 7.31566 19.4162 60.7688
748 1 9.37334 21.6183 58.0874
819 1 13.2983 19.5037 59.3082
821 1 19.0057 19.2939 58.8395
895 1 32.4231 19.562 60.5914
829 1 2.55584 22.8451 59.9959
831 1 6.99076 23.8714 61.5973
833 1 12.8281 24.1095 59.9469
820 1 16.6751 21.7616 61.5987
822 1 22.6483 21.1714 59.604
907 1 26.1574 23.8776 61.7963
824 1 28.767 21.7482 58.5672
909 1 32.0181 23.5725 60.1785
2247 1 13.9116 28.0015 64.1908
2177 1 12.8503 28.3937 59.6531
834 1 16.8327 26.3487 60.9485
836 1 22.6917 25.5911 59.8877
2251 1 26.3609 27.8872 61.9427
838 1 29.1534 26.1489 58.71
2459 1 23.2028 28.3439 76.1458
774 1 4.53496 8.06543 63.7353
776 1 10.6895 7.65864 62.3116
850 1 23.9117 7.87376 64.2002
1038 1 1.02317 26.2529 78.4142
852 1 29.6701 7.81708 63.6601
788 1 4.13945 12.4683 63.3893
861 1 14.3608 9.71233 64.6584
792 1 16.4713 12.3238 61.5093
863 1 20.0465 10.4919 62.5348
865 1 26.4706 10.1668 61.5423
864 1 24.2269 12.7115 65.0949
866 1 29.3542 12.3535 63.513
790 1 10.5708 12.6393 62.7421
875 1 13.8698 15.1138 63.9467
877 1 20.4973 14.6797 62.7186
879 1 26.5356 14.9008 61.8462
880 1 30.0101 16.7832 63.3609
802 1 4.21551 16.851 63.1797
804 1 10.1703 17.1632 62.19
889 1 14.0754 18.9512 63.8372
891 1 20.5621 19.3485 63.1471
893 1 26.4313 19.1969 61.6757
878 1 23.4854 17.2761 64.7143
1033 1 33.4505 19.227 65.2639
816 1 4.40398 21.443 64.0712
818 1 10.3054 21.2247 62.5712
903 1 13.8955 23.7544 63.6755
905 1 20.4729 24.0229 62.4308
892 1 23.9486 21.9391 64.8423
894 1 30.0496 21.5637 63.3217
964 1 33.4622 23.7448 65.5506
830 1 3.90678 26.1379 63.8062
832 1 10.3605 25.8366 62.5244
1119 1 33.9661 23.6269 76.0921
985 1 9.68931 6.06612 73.9647
906 1 23.1379 26.0035 64.4933
908 1 29.7675 26.2835 63.8812
844 1 5.0657 8.45495 68.6495
846 1 11.8826 8.34414 67.0064
848 1 17.599 7.61551 65.9159
1104 1 31.0282 21.4252 78.8741
922 1 30.7583 7.62537 67.7739
857 1 1.46774 10.2444 66.6519
858 1 5.32225 12.5896 67.9938
859 1 7.82991 10.0917 65.1807
860 1 11.4872 12.5382 67.1282
931 1 15.0619 10.1152 68.41
862 1 18.2172 12.213 65.4625
933 1 21.1089 10.2136 67.2446
935 1 27.4196 9.7915 66.0011
937 1 33.2383 10.5619 65.33
936 1 30.592 12.2454 68.2859
871 1 1.43989 14.7693 66.1631
872 1 5.2241 16.9412 68.0178
873 1 7.53731 14.9478 64.9687
876 1 17.9277 16.6648 65.7512
947 1 21.8309 14.8205 67.1402
949 1 27.266 14.4489 66.0726
951 1 33.0892 14.5279 65.2284
885 1 1.90667 18.754 66.8281
887 1 7.30564 19.5315 65.5604
874 1 11.0357 17.3883 66.1631
961 1 20.6525 19.174 67.7864
963 1 27.3171 19.1818 66.152
950 1 31.2325 17.0987 67.6609
899 1 1.19617 23.4318 66.6973
886 1 4.72984 21.3389 68.8614
901 1 7.42663 23.3976 65.5614
888 1 11.057 21.0792 67.1284
890 1 16.917 21.12 65.6373
975 1 21.5316 23.4474 67.026
977 1 27.0123 23.4021 66.4077
1035 1 30.6637 21.6963 68.2314
900 1 5.30223 26.152 68.045
660 1 0.910168 17.1687 51.0913
902 1 11.2822 26.0982 66.8136
904 1 17.6329 25.8152 65.571
978 1 30.5974 25.9679 68.2148
916 1 12.8611 7.78685 70.7104
918 1 18.9779 8.13817 69.6324
920 1 24.4265 7.87749 69.0577
2313 1 2.57675 28.3436 70.6838
927 1 2.78697 10.273 71.2317
929 1 9.25981 10.572 69.4684
932 1 18.6392 12.6767 69.9099
1003 1 22.1414 9.96122 71.7601
934 1 24.4921 12.2828 69.3642
1005 1 28.0216 9.90343 70.7198
1116 1 26.5698 26.3632 78.2292
941 1 2.3128 14.8247 70.834
943 1 9.0178 15.186 69.3985
945 1 14.7522 14.8659 68.7625
948 1 24.3949 17.0145 68.9777
1019 1 28.3263 14.6467 70.5329
955 1 2.43076 19.3776 71.1638
957 1 8.95864 19.1089 70.0138
944 1 12.942 17.0064 71.7053
959 1 14.8869 18.7395 68.5339
946 1 18.9614 16.6667 70.2752
1031 1 22.2008 19.1533 72.3902
1020 1 28.2182 18.9743 70.8269
969 1 2.97264 24.2529 71.1924
971 1 8.60403 23.7829 70.0746
973 1 14.7257 23.4912 68.3128
958 1 12.5545 21.821 71.3038
960 1 17.5084 21.527 70.3077
1045 1 21.9522 23.6802 71.4047
962 1 24.7975 21.3842 69.4711
1047 1 28.4102 24.0551 70.2804
654 1 20.8316 12.415 51.6506
2323 1 33.3249 28.3975 65.6457
2321 1 26.8135 28.2333 66.5817
972 1 12.3142 26.4585 71.3947
974 1 18.3068 25.3846 70.2132
2389 1 22.0194 28.2152 71.4436
976 1 24.5016 25.7832 68.3183
1048 1 31.9865 26.4048 72.4966
2243 1 1.86588 28.1009 66.2547
914 1 6.22116 8.55167 72.4024
988 1 19.811 8.26949 75.2743
990 1 25.7906 7.78266 73.4535
1061 1 29.8303 5.68242 75.2937
992 1 31.7664 7.4652 72.3079
997 1 3.50323 10.4017 75.6956
928 1 6.14209 12.7237 72.5094
999 1 10.1009 10.7003 74.0282
930 1 12.1396 12.3615 71.4309
1001 1 15.962 9.93275 72.7614
1002 1 19.3835 12.6743 74.3747
1075 1 29.5907 10.5072 75.136
1006 1 32.2049 11.5225 72.3902
1011 1 3.43281 14.9182 75.399
942 1 6.1285 16.7714 72.5837
1013 1 9.55084 15.1683 74.3454
1015 1 15.9393 14.5728 73.1747
1017 1 22.6457 14.5393 71.7609
1016 1 19.3331 17.375 74.9387
1004 1 25.4014 12.5187 73.796
1025 1 3.7437 19.4556 75.8357
1027 1 10.1446 19.299 73.8643
1029 1 16.0671 19.3488 72.862
1018 1 25.7683 16.9465 74.0896
1103 1 29.3515 18.6256 75.4326
1022 1 31.5294 15.9646 72.1355
1039 1 3.48377 23.9284 75.4844
956 1 6.36307 21.5603 72.4298
1041 1 9.84336 23.8948 74.7245
1043 1 16.1397 24.2341 73.1676
1030 1 19.3718 21.9738 74.7462
1032 1 25.9106 21.4993 73.7922
1117 1 29.3778 24.1493 75.488
676 1 5.16478 21.2573 51.3366
1034 1 31.22 21.6972 72.8639
1042 1 13.1773 26.4124 76.2414
970 1 6.57684 26.2805 72.7798
714 1 33.6359 7.99428 53.4036
640 1 20.8294 7.42924 51.066
1044 1 19.7668 26.5467 74.4834
1046 1 25.5497 26.3212 73.4314
982 1 1.53886 7.42934 78.108
984 1 7.49478 8.0801 76.6405
987 1 16.7995 5.78979 72.7107
986 1 13.5404 7.91622 75.3905
989 1 21.7062 5.67034 72.5092
6537 1 33.8365 19.1469 69.8135
1060 1 27.3224 8.294 78.0824
1086 1 20.5777 17.4937 78.9637
1062 1 31.7414 8.0591 78.6834
996 1 0.923087 12.2663 78.5278
998 1 7.191 12.8386 77.1566
1069 1 10.4863 10.4941 78.0093
1000 1 13.3384 12.4803 75.1122
1071 1 16.7888 10.0731 77.3348
1073 1 23.7169 9.8316 76.0936
1074 1 26.9218 12.4505 78.1586
1102 1 27.1866 21.6078 77.7372
1076 1 31.4424 12.5154 78.8221
2179 1 19.1793 28.1614 58.1211
1012 1 7.34113 17.6344 77.0896
1014 1 13.5992 17.0277 76.0883
1085 1 16.6026 14.3086 77.8427
1087 1 23.1288 14.3394 76.8519
1089 1 29.4224 14.3263 75.0658
1091 1 34.2293 14.466 75.777
1010 1 1.496 17.3675 78.1819
1072 1 20.5908 12.2194 79.0419
1099 1 16.6436 19.3358 77.2628
1101 1 22.8195 18.9887 76.0936
1088 1 26.7385 16.9882 77.9971
1090 1 31.3436 17.1266 78.4676
1100 1 20.586 21.7413 79.4032
1024 1 0.617112 21.7876 78.5484
1026 1 7.52496 21.833 77.0679
1111 1 11.2104 23.9103 79.2037
1028 1 13.6346 21.7677 76.0706
1113 1 17.0362 23.931 77.4921
1040 1 7.04327 26.1541 77.581
1115 1 23.2856 23.6175 75.8718
2173 1 2.47235 28.0855 60.4989
1114 1 20.0343 25.8478 79.0076
853 1 32.2548 5.7705 60.4289
915 1 9.41536 6.5937 69.3941
648 1 5.49116 11.6769 51.5882
2385 1 10.1855 28.4889 74.2049
2103 1 2.8961 27.7062 54.1028
2391 1 27.6857 28.3488 70.7759
2245 1 7.3328 28.0582 65.3517
2319 1 20.4401 28.2033 67.1329
2105 1 7.0484 28.3376 55.5516
2457 1 16.5612 28.233 77.2681
921 1 27.2274 5.95429 66.5647