ITEM: TIMESTEP
226000
ITEM: NUMBER OF ATOMS
16000
ITEM: BOX BOUNDS pp pp pp
3.8418188625674787e-01 1.0181581811374809e+02
5.6988257350946583e+00 9.6501174264903426e+01
-5.1560474021370482e+00 1.0735604740213563e+02
ITEM: ATOMS id type x y z
379 1 1.07338 14.5551 21.6942
6 1 14.9429 7.81561 -4.65419
8 1 19.5438 8.04643 -4.15256
10 1 24.02 8.08311 -3.57966
12 1 28.3742 7.96806 -2.21819
14 1 32.9917 7.96055 -1.81302
85 1 3.30985 10.0279 -2.65204
87 1 8.0854 10.4493 -2.56812
20 1 14.8074 12.7574 -4.72767
89 1 12.1057 10.6586 -2.00849
22 1 19.3795 13.319 -3.63235
24 1 23.9397 12.6526 -3.07331
26 1 28.674 12.3371 -2.5788
28 1 32.4856 12.6997 -1.80567
99 1 3.12857 14.6012 -3.04412
101 1 8.48025 14.9538 -2.96402
103 1 12.6464 14.8347 -1.09447
34 1 14.7276 17.3532 -4.77653
36 1 19.1597 17.804 -3.82836
38 1 23.3459 17.1043 -3.03761
40 1 28.0084 17.0161 -2.74353
113 1 3.97791 19.1844 -3.25128
117 1 12.231 19.6493 -1.69292
42 1 32.4702 17.3304 -1.82766
127 1 3.865 23.9854 -3.09322
129 1 7.85902 24.1857 -2.77035
48 1 14.965 21.9386 -5.15351
10969 1 0.712516 17.0018 5.89028
50 1 19.2334 21.8823 -4.15441
52 1 23.9738 21.8502 -3.58949
54 1 28.6424 21.8287 -2.3371
56 1 33.2011 21.2903 -1.72205
5809 1 33.0217 10.0178 13.757
77 1 16.4716 5.73086 -1.22217
62 1 15.0877 25.9595 -4.58561
64 1 18.8353 25.9681 -4.12448
66 1 23.5497 26.0014 -2.79517
68 1 28.2213 26.3389 -2.62503
70 1 32.5604 25.9789 -1.55597
10878 1 0.964476 7.94002 -0.101109
72 1 5.5325 8.09913 0.476403
74 1 9.8883 8.10126 1.12434
76 1 14.4389 8.31247 0.87555
78 1 18.9268 7.97939 1.89199
95 1 25.4708 10.4519 -0.0476833
83 1 31.0233 6.33235 1.12116
10891 1 0.831565 12.0406 -0.405161
86 1 5.95901 12.641 0.36844
88 1 9.65209 12.6605 0.880376
90 1 14.4326 12.7146 1.52469
91 1 16.7028 10.2667 -1.36174
93 1 21.218 10.4293 -0.450662
97 1 30.5848 10.3796 0.898476
102 1 9.68613 17.1276 1.11839
104 1 14.3233 17.4623 2.09741
105 1 16.5853 14.9759 -1.19406
107 1 20.1012 14.9866 -0.358511
109 1 25.7715 14.8356 -0.0394888
111 1 30.3872 15.0478 1.01653
1691 1 24.321 28.4196 19.2935
10904 1 0.706197 16.7707 -0.65506
100 1 5.39948 17.254 0.0705275
115 1 7.69852 19.4873 -2.40721
119 1 16.2209 19.729 -1.46708
121 1 21.0667 19.6858 -0.988003
123 1 25.773 18.8385 -0.352355
125 1 30.2579 19.1198 0.953726
10917 1 1.31627 21.4587 -0.109561
114 1 5.0598 21.8471 0.744148
116 1 9.66431 21.6918 1.11342
131 1 12.0493 23.7545 -1.7469
118 1 14.0048 21.822 2.10622
133 1 17.0026 23.8908 -0.819564
135 1 21.3169 24.0639 -0.451541
137 1 25.997 23.4996 0.385835
139 1 30.6603 23.609 1.22517
10930 1 0.648545 26.0857 0.011017
128 1 5.22639 26.5769 0.532041
130 1 9.87561 25.8064 1.2784
4 1 10.6853 7.6462 -5.18173
1481 1 25.1116 28.059 0.239104
348 1 26.4193 26.4148 22.5451
5835 1 33.7373 19.3856 13.8218
1475 1 12.4418 27.9141 -1.77357
145 1 11.5354 5.98379 4.70199
80 1 23.5447 8.12337 2.70142
82 1 27.6972 8.48016 3.61952
84 1 32.4199 8.59113 4.77583
155 1 3.0897 10.0254 3.17963
157 1 7.49907 10.1042 4.22604
159 1 11.9007 10.1156 4.15189
161 1 16.2124 10.0544 4.93114
92 1 19.1119 12.6231 2.46601
94 1 23.0331 13.11 2.97429
96 1 27.7833 12.7069 3.53777
98 1 32.9648 13.0789 4.37443
169 1 2.91071 14.6821 2.89388
171 1 6.80829 14.8104 4.00359
173 1 12.213 15.0205 4.22753
175 1 16.0991 14.6269 5.18705
110 1 27.8975 16.8945 3.53571
112 1 32.5014 17.3445 4.50261
183 1 2.58363 18.6904 2.83805
185 1 7.05262 19.2396 4.13981
187 1 11.6496 19.5958 4.79469
106 1 18.7453 17.2364 2.50108
108 1 23.3986 17.5426 2.58225
197 1 2.66895 24.2362 3.47552
199 1 6.89458 23.9687 4.31768
201 1 11.5447 24.1786 5.20786
120 1 18.6354 21.8846 2.26016
122 1 23.3896 21.2994 2.76825
124 1 28.0395 21.0378 3.62272
126 1 32.2279 21.1109 4.6448
132 1 14.5512 25.6016 1.89473
134 1 18.646 26.1067 1.99931
136 1 23.3682 26.0099 3.11934
138 1 28.1718 26.1148 3.18262
140 1 32.4364 26.1954 4.77623
142 1 4.63415 7.35677 6.70478
144 1 8.69831 8.24375 7.69118
146 1 13.689 7.858 7.49539
148 1 17.9652 7.84389 8.63379
153 1 29.9742 6.13592 7.00735
73 1 7.67573 5.83133 -2.10851
156 1 4.94724 12.7176 6.59408
158 1 9.1638 12.8487 7.01211
160 1 13.4835 12.5177 8.24017
162 1 18.2213 12.3349 8.29976
163 1 20.8155 10.3282 5.98404
165 1 25.5662 10.5134 6.01165
167 1 29.4067 10.4948 6.21995
170 1 4.91032 17.1172 6.59237
177 1 20.7094 14.4773 5.77187
179 1 25.3399 15.0945 6.39615
181 1 29.7318 14.4344 7.04862
328 1 12.2903 21.9203 20.4552
172 1 9.02402 16.992 7.26524
174 1 13.5664 17.1098 8.10118
189 1 16.336 18.9864 5.017
176 1 18.2631 17.1243 8.38707
191 1 20.9716 19.354 6.20836
193 1 25.6533 19.1077 6.03415
195 1 30.2547 18.9654 7.05709
184 1 4.59369 21.8429 7.22329
186 1 9.29161 21.525 7.22015
188 1 13.8881 21.7485 8.46559
203 1 16.197 23.5799 5.02128
190 1 18.6308 21.6162 8.40067
205 1 20.5544 23.9789 5.4196
207 1 25.1286 23.8561 5.93494
209 1 29.8607 23.8628 6.85264
1687 1 15.2298 28.1929 17.6093
198 1 4.84967 26.0873 6.87437
200 1 8.8829 26.2888 7.68571
202 1 13.6418 26.1696 8.01878
204 1 17.9685 26.2565 8.34334
10956 1 0.497377 12.4146 5.82075
1753 1 5.81436 27.8877 22.3072
322 1 30.958 17.0622 22.8913
330 1 17.8574 21.5321 21.1378
326 1 8.26155 21.7566 19.7259
346 1 21.9108 25.8668 21.4866
344 1 16.9421 26.0905 21.1107
150 1 22.8149 8.19624 8.7944
152 1 27.0673 8.13046 9.36132
154 1 31.8494 8.13419 9.51256
225 1 2.20828 10.1068 9.08227
227 1 7.36881 10.9781 10.1343
229 1 11.6067 10.2735 10.916
231 1 15.5749 9.64995 11.21
233 1 19.8961 10.2281 12.1287
164 1 22.9224 12.1105 9.09062
166 1 27.0755 13.0367 9.41817
168 1 31.6338 12.4003 10.1507
239 1 2.06315 14.7837 9.54532
241 1 6.59434 14.8277 10.3382
243 1 11.392 14.93 10.7543
245 1 16.0784 15.1004 10.8606
247 1 20.3302 14.2564 12.1308
253 1 2.26002 19.5664 9.65843
255 1 6.9825 19.5926 9.91302
257 1 11.406 19.3808 10.8115
259 1 16.1704 19.0929 11.417
261 1 20.2084 19.1325 12.2598
178 1 22.9817 16.8925 9.04811
180 1 27.4845 17.3889 10.0519
182 1 32.1042 17.0618 9.98344
267 1 2.01076 23.6923 9.49222
269 1 6.96205 24.2126 10.4743
271 1 11.7522 23.9771 10.9821
273 1 16.2466 23.1498 11.2652
192 1 22.6213 21.5184 8.8368
275 1 20.6636 23.9129 11.8684
194 1 27.2383 21.901 9.30835
196 1 31.9885 21.3925 10.5933
5757 1 33.9682 14.8522 7.70977
409 1 5.29282 24.0215 22.1838
342 1 12.1416 25.992 20.4964
407 1 0.816237 23.7111 22.1828
206 1 22.4329 26.0405 9.15518
208 1 27.0315 25.76 10.0006
210 1 31.8295 25.9854 10.3044
281 1 2.18534 6.0008 15.2858
212 1 4.17976 8.65159 12.3058
214 1 8.51899 8.01393 13.3893
216 1 13.2902 7.7744 13.9593
218 1 17.8529 7.64196 14.7613
220 1 22.4439 7.83221 15.3724
222 1 26.9046 8.05064 15.6042
295 1 1.51306 9.95858 15.8373
226 1 3.92284 12.4946 12.9478
297 1 5.99386 10.1468 16.3008
228 1 8.5045 12.7296 13.4633
230 1 13.0979 12.4609 14.0625
232 1 17.6901 12.366 15.2026
234 1 22.3991 12.6318 15.3665
235 1 24.6207 10.4893 12.5342
237 1 28.9743 10.321 12.7573
149 1 20.821 5.76699 5.57114
309 1 1.36772 14.754 15.8276
244 1 13.4877 16.8691 14.2835
246 1 17.6483 16.7885 14.6417
248 1 22.3446 16.9035 14.9718
249 1 24.9453 14.4039 12.8486
251 1 29.4153 14.9519 13.2751
5822 1 33.3234 14.7078 13.771
240 1 4.3959 17.0365 12.8995
323 1 1.56782 19.4847 15.7374
242 1 8.89366 17.0698 13.5901
263 1 24.8486 19.5646 12.4328
265 1 29.2 19.4543 12.8079
337 1 1.5878 23.575 15.8145
254 1 3.95661 21.5796 13.2945
256 1 8.55928 21.0876 13.2317
258 1 13.1501 21.3717 14.2604
260 1 17.9662 21.3761 14.9031
262 1 22.5174 21.1074 15.3271
277 1 24.3478 23.6759 12.7108
279 1 29.1981 23.4677 13.4702
5848 1 33.9586 23.9678 13.4771
268 1 3.76842 26.3704 12.7647
270 1 9.01449 26.158 13.2229
272 1 13.6784 25.923 14.7461
274 1 18.1343 25.7439 14.3988
276 1 22.3321 25.9466 15.7977
5913 1 33.6574 24.1343 20.062
334 1 26.6936 21.8 22.0037
282 1 3.68877 7.96784 19.182
332 1 21.7676 21.2958 21.8837
1547 1 16.148 28.4034 5.26832
224 1 31.2144 7.64154 16.3317
296 1 3.25326 12.411 19.5011
299 1 10.5585 10.464 16.8222
301 1 15.08 10.0511 17.6287
300 1 12.4272 12.2248 20.754
303 1 19.6478 10.4744 17.9523
305 1 24.191 9.89353 18.6076
236 1 27.1936 12.758 15.848
307 1 28.8814 10.1497 19.3738
238 1 31.0858 12.925 16.3946
311 1 6.39012 14.4314 16.4137
313 1 10.9845 14.7262 17.0083
315 1 15.0981 14.647 17.581
317 1 19.7462 15.1402 18.3424
319 1 24.4136 14.7448 18.7207
252 1 31.5571 17.6802 16.561
310 1 3.86649 17.0172 19.1278
325 1 6.3968 19.4572 16.0836
327 1 10.9804 19.3773 17.0186
329 1 15.3078 19.2836 17.9001
331 1 19.9775 18.8588 18.2441
333 1 24.3858 19.4021 18.665
250 1 26.7146 17.2943 16.6872
324 1 3.54975 21.5591 19.2278
339 1 6.16331 23.9385 16.1845
341 1 10.531 24.4583 17.0616
343 1 15.316 23.6882 17.6745
345 1 19.998 23.769 18.2474
347 1 24.2546 23.7006 19.0203
349 1 28.982 24.2434 19.4306
264 1 27.0039 21.8087 16.3501
266 1 31.5566 22.1719 17.1161
338 1 3.72667 26.1027 19.0446
340 1 7.97847 26.1014 19.3748
5900 1 33.1391 18.8765 20.045
278 1 26.7283 26.3243 15.8845
280 1 31.3027 25.8982 16.1645
284 1 8.28029 7.93879 19.7063
286 1 12.213 7.58504 20.203
288 1 17.1469 7.96503 20.3092
290 1 22.5174 6.91338 21.8016
292 1 26.3675 8.51965 22.017
365 1 0.783879 9.7963 21.6088
298 1 7.8048 12.6589 19.8438
1541 1 2.48629 28.5159 3.38238
302 1 17.3759 11.9622 21.1303
304 1 22.0382 12.7574 21.5364
306 1 26.603 13.0901 22.374
5874 1 33.4899 10.4794 19.5803
81 1 26.0177 5.80401 0.245367
381 1 5.62589 14.7969 22.68
283 1 6.24735 5.82137 15.5588
314 1 12.5858 17.2944 20.6611
316 1 17.2774 16.8637 21.2859
321 1 28.9345 14.8176 19.326
5887 1 32.9634 14.8644 20.1477
393 1 0.472362 19.2518 21.6413
395 1 5.74311 19.6343 21.9901
312 1 8.32503 17.2471 19.7353
335 1 28.6461 19.758 19.6681
318 1 22.0613 17.2868 21.7333
320 1 26.038 17.2534 22.3977
1751 1 1.1968 28.4131 22.3229
1473 1 8.02097 28.2768 -2.07478
1615 1 11.7403 28.0771 11.0964
221 1 24.3385 5.75437 12.6128
1621 1 24.2499 28.0043 12.9059
7161 1 33.7584 28.0095 20.4681
1549 1 20.6226 28.0537 5.28144
1693 1 29.1564 28.1527 19.4245
1551 1 25.4321 28.393 6.27348
147 1 16.1874 6.06984 4.92228
367 1 6.11514 10.3266 22.5975
308 1 30.8234 12.4435 23.0027
69 1 30.8788 23.3468 -4.9389
352 1 3.40954 8.37883 25.179
354 1 8.11365 7.69777 26.0461
632 1 1.18741 7.69041 49.8451
573 1 28.1244 6.22722 42.7008
643 1 29.8416 6.11316 48.029
369 1 10.197 10.2894 23.1681
477 1 1.03921 23.3921 27.6303
366 1 2.52139 12.531 24.8493
368 1 7.67206 12.466 26.1777
5926 1 32.589 6.00198 26.5241
696 1 20.7996 26.1029 50.8927
373 1 19.436 9.71822 23.6904
372 1 16.8051 12.7345 26.595
375 1 23.8713 10.1546 24.9267
377 1 28.4446 10.3788 25.8601
641 1 22.7196 6.11404 48.2461
382 1 7.30703 17.2511 25.9834
385 1 14.8486 14.8445 23.7048
387 1 19.6129 14.4487 24.1515
389 1 24.0568 14.9116 25.0781
391 1 28.799 15.1046 25.7844
429 1 18.5895 6.2061 30.5347
380 1 3.00748 17.0577 24.7905
399 1 14.9723 20.108 23.5925
401 1 19.1225 19.1938 24.7408
403 1 23.5591 20.0227 25.1433
405 1 28.1188 19.0351 25.6707
394 1 3.08112 21.067 25.234
396 1 7.34909 22.0629 26.0243
411 1 9.94472 24.1248 24.0053
398 1 11.4591 21.3881 26.556
415 1 19.198 23.8977 24.6745
417 1 24.5594 24.2001 25.3878
419 1 28.4383 23.7365 25.6853
5978 1 33.1555 23.9429 27.3125
363 1 28.101 6.23036 25.7338
408 1 3.7218 26.5352 25.6848
410 1 7.91002 26.499 26.2486
412 1 12.4448 25.997 27.0294
690 1 5.27949 25.7527 51.1012
1965 1 9.25018 28.2446 41.3953
413 1 14.7162 23.9897 23.7393
350 1 31.0524 26.339 23.3669
336 1 31.0346 21.7355 22.8625
356 1 12.6246 7.62342 26.1978
358 1 17.135 8.70559 26.8585
360 1 21.2689 8.07868 27.1673
362 1 25.3052 8.24381 28.6007
364 1 30.1074 8.44436 28.9922
435 1 0.730037 9.7215 28.0993
437 1 5.41145 9.82821 29.0636
439 1 9.44515 9.67989 29.2428
370 1 12.2248 12.2574 26.2786
441 1 13.4353 10.0171 29.2759
374 1 21.3951 12.5135 27.9921
376 1 25.9949 12.8737 28.7637
378 1 30.4081 12.845 29.4983
5939 1 32.6405 9.85141 26.3789
449 1 0.343655 13.9267 28.3931
451 1 4.83479 14.2769 28.6288
453 1 9.21969 14.4728 29.3476
455 1 13.8382 14.7977 29.8733
386 1 16.3734 17.268 26.9442
390 1 25.4026 17.4217 28.2437
5952 1 32.6995 14.5985 26.2355
392 1 30.1856 17.4795 28.7088
635 1 7.7519 5.93981 48.2545
465 1 4.88511 19.0528 28.6709
467 1 8.62544 19.1932 29.401
384 1 11.6762 16.9011 27.1244
388 1 20.8838 17.1352 27.8579
5965 1 32.7287 19.3822 26.52
501 1 23.0099 6.24354 37.462
479 1 4.86747 23.7955 28.6488
481 1 9.44009 23.9274 29.9195
483 1 14.2109 24.0198 30.4975
400 1 15.7463 21.8427 26.8314
402 1 21.1806 21.9335 27.6944
404 1 25.8505 21.9165 28.7515
406 1 30.4483 21.3949 28.9294
698 1 26.6405 25.9894 50.0482
383 1 9.78891 14.9732 23.4737
688 1 0.828242 25.402 50.162
414 1 16.8078 26.3462 27.5644
416 1 21.4043 26.5212 27.8265
418 1 26.1308 26.2972 28.3166
420 1 30.8094 26.6366 29.3062
422 1 2.2853 7.67565 32.0054
424 1 6.99434 8.06054 32.0859
426 1 11.7145 7.54825 32.8291
371 1 14.9117 9.94722 23.3292
428 1 16.3678 8.31178 32.8854
668 1 20.0415 16.6368 50.9551
436 1 2.87175 12.1107 31.2234
438 1 7.47387 12.8013 32.1945
440 1 11.3357 12.2766 32.8455
443 1 19.1701 10.8502 30.3714
445 1 23.1098 10.518 30.7811
447 1 27.6159 10.1827 32.2065
6004 1 32.1711 10.1857 32.9763
452 1 6.75285 16.8668 32.1136
454 1 10.9016 17.4495 32.2337
457 1 17.7597 15.4967 30.2345
459 1 23.0051 14.3351 30.9495
461 1 27.6941 14.9669 31.4136
6017 1 32.2361 14.7619 32.1411
450 1 2.29811 16.6301 31.7212
469 1 14.4324 19.3795 29.4844
471 1 18.4559 19.767 30.9995
473 1 22.8553 19.7953 31.3993
475 1 27.5526 19.4115 31.9791
6030 1 32.2635 19.4257 32.5498
464 1 2.51661 21.1248 31.5006
466 1 7.03133 21.5658 31.9372
468 1 11.5942 21.5276 32.2575
485 1 18.9173 23.7217 30.5615
487 1 23.0483 23.6408 30.7637
489 1 27.7445 24.1298 31.498
6043 1 32.4649 24.0809 32.4224
478 1 2.80368 25.6068 31.166
480 1 6.84097 26.2797 31.9028
482 1 11.7159 26.2523 32.3644
1821 1 0.6042 27.9679 27.6014
484 1 16.135 26.2547 33.4405
686 1 33.0495 21.1946 48.6832
682 1 20.2722 21.2599 50.799
497 1 14.0932 5.69825 36.1203
430 1 20.9753 8.19257 34.1449
432 1 25.1961 7.97745 34.8269
434 1 30.052 7.95109 35.3918
507 1 4.92089 10.4962 34.8894
509 1 9.43379 9.73426 35.3924
511 1 13.5819 10.0468 36.2066
442 1 16.1446 12.8784 33.3717
513 1 18.1872 10.1525 36.7293
444 1 20.7886 12.6643 33.7941
446 1 24.6414 12.9728 34.6158
448 1 29.4513 12.5307 35.1668
6069 1 33.051 10.0286 37.3818
521 1 4.68135 14.6382 34.8089
523 1 8.93484 15.1002 35.6918
525 1 13.0857 14.6006 35.5878
527 1 18.3456 14.801 36.8439
458 1 20.3197 17.7656 33.7684
460 1 25.272 17.3818 34.8143
6082 1 33.5274 14.5704 36.5596
535 1 4.42725 19.0472 35.2514
537 1 8.69532 19.5874 35.5189
539 1 13.3212 19.1066 35.7776
456 1 16.3468 17.5443 33.5551
462 1 29.9064 17.1365 35.3216
549 1 4.27437 23.4805 35.0904
551 1 8.65768 23.8367 34.8551
553 1 13.7684 24.0195 36.5296
470 1 16.0145 21.6936 33.5886
555 1 17.5026 24.0848 37.5367
472 1 20.7231 21.9873 34.4477
474 1 25.2645 22.1079 34.7439
476 1 29.7023 21.759 35.4764
493 1 5.04579 5.57622 35.1123
699 1 29.2348 23.71 47.1401
691 1 8.46964 24.1331 48.1122
486 1 20.9752 25.9582 34.0576
488 1 25.607 26.2565 34.3565
490 1 29.8474 26.0961 34.9412
492 1 2.14756 7.87111 38.0409
494 1 6.79291 7.63767 38.4424
496 1 11.1836 7.93148 39.1744
498 1 15.7866 8.61242 39.6161
569 1 17.3614 5.83129 43.3657
633 1 3.25876 5.62055 47.2882
504 1 31.0247 8.01327 40.2346
506 1 2.51168 11.8789 37.8855
508 1 6.94912 11.6056 37.8624
510 1 10.8634 12.7583 38.8512
512 1 15.5327 12.4951 39.9583
515 1 22.2139 10.6532 37.794
517 1 26.7517 10.3406 38.0308
522 1 6.44162 16.9605 38.5498
529 1 22.3656 14.8281 37.5041
531 1 27.0615 15.095 38.1089
532 1 31.065 17.0129 39.7791
520 1 1.85102 16.5007 38.0289
524 1 11.0451 17.2208 38.75
541 1 17.897 19.4796 37.3263
526 1 14.7812 16.7585 39.274
528 1 19.2009 16.779 40.9217
543 1 22.6863 19.9867 37.1586
545 1 27.2145 19.3805 38.1094
6095 1 32.9462 19.2218 37.1533
534 1 2.04529 21.4838 37.7248
536 1 6.2674 21.7358 38.4953
538 1 10.8918 21.4389 38.074
540 1 15.2239 21.6406 39.4443
557 1 22.3632 23.8589 37.8464
542 1 19.5256 21.297 40.5295
559 1 27.1463 23.8473 38.0023
6108 1 33.5619 23.9475 37.1247
546 1 30.8963 21.8352 39.8809
548 1 1.80628 26.1149 37.9895
550 1 6.4633 25.934 38.3392
552 1 11.1688 26.0275 38.813
554 1 15.8193 26.4369 39.948
556 1 20.2462 26.2541 40.6933
689 1 3.73544 23.6601 47.0545
560 1 30.9829 26.4366 40.2558
1973 1 28.1904 28.3293 42.5619
567 1 13.0163 5.91568 42.6557
697 1 22.7072 23.7084 48.4123
500 1 20.1335 7.47762 40.0669
397 1 10.195 19.5317 23.4085
502 1 24.777 7.77458 41.2682
674 1 0.691354 21.2883 49.82
577 1 4.15931 9.91678 41.4419
579 1 8.94618 9.99698 41.9029
581 1 13.4461 10.348 42.5603
583 1 17.2853 10.4959 43.4154
514 1 19.9709 12.1247 40.2465
585 1 22.009 9.64427 43.6053
516 1 24.5388 12.81 41.0746
518 1 30.6506 12.7074 39.6991
587 1 28.3355 10.479 42.7746
591 1 3.93164 14.594 41.5065
593 1 8.51049 14.4705 41.6222
595 1 12.8582 14.7022 42.0682
597 1 17.3799 14.4301 43.3563
601 1 28.009 15.3907 42.5353
605 1 3.92971 19.2535 41.3167
590 1 1.50658 17.1087 44.4706
607 1 8.54185 19.8038 41.7462
609 1 12.3411 19.3973 42.3642
530 1 24.1833 17.6035 40.9225
615 1 27.9403 19.3852 42.7868
604 1 1.29831 21.4987 43.8778
619 1 4.1965 23.7781 41.9
621 1 8.68042 24.4072 42.0293
623 1 13.1764 23.994 42.6318
625 1 17.5813 23.0697 43.2854
544 1 24.816 22.0581 40.9552
629 1 28.2836 23.6439 42.5549
637 1 12.4361 5.75268 48.9381
670 1 26.8158 17.1867 49.5068
684 1 26.3171 21.6203 50.3363
1895 1 9.04287 28.6216 35.3578
558 1 24.8362 26.3145 41.2197
700 1 32.8204 25.8587 49.3296
562 1 1.29802 7.80027 44.5608
564 1 6.11453 8.09702 44.9931
566 1 10.7567 8.00861 45.3065
568 1 15.4223 8.11747 46.1876
570 1 19.397 7.99652 46.9717
572 1 25.4507 8.15322 45.3975
574 1 31.2344 7.65567 44.5496
576 1 2.03326 12.3037 44.0212
578 1 6.37081 12.1817 44.6967
580 1 10.7694 12.5673 45.496
582 1 15.3278 12.2319 46.3165
584 1 19.4079 12.7273 46.8847
586 1 25.2223 12.83 45.2581
588 1 31.4352 12.4146 44.1309
592 1 6.24746 17.1652 44.8888
594 1 10.1722 17.1465 45.1835
599 1 22.0461 14.4071 43.8319
671 1 29.4425 14.7801 46.363
602 1 31.5118 16.9965 44.1761
675 1 3.49293 19.2691 47.3474
596 1 14.3735 16.9289 45.9778
611 1 16.9121 18.9522 43.0267
613 1 21.346 19.5145 44.2836
598 1 18.4015 17.309 46.7913
600 1 25.1073 16.5022 45.1682
606 1 6.59569 21.2749 44.8112
608 1 11.3035 22.1476 45.2986
610 1 15.353 21.3437 46.8477
627 1 21.9583 23.9973 44.2275
612 1 19.5995 21.0932 47.142
614 1 25.5354 21.3659 45.5514
616 1 31.8425 21.615 44.4135
685 1 28.8793 19.3496 47.1587
618 1 1.39328 26.1737 44.3918
620 1 6.27775 26.0904 44.4934
622 1 10.6682 26.5345 45.6721
624 1 15.3283 26.2283 45.9076
626 1 19.118 26.2262 46.6163
628 1 26.106 25.8459 45.9586
630 1 31.5738 26.1652 44.782
683 1 22.552 19.1262 47.9257
294 1 31 8.58692 23.0502
503 1 27.5976 5.85526 38.0569
1963 1 4.58933 28.4518 41.2782
695 1 16.8268 24.2028 49.0183
642 1 26.4736 8.07355 50.4072
644 1 33.0977 7.86155 48.9397
646 1 1.38512 12.2447 50.6014
647 1 3.31825 10.1593 47.9688
649 1 8.07218 10.4235 48.3415
651 1 12.6352 9.95814 49.4769
653 1 16.8607 9.84635 50.2365
427 1 14.8604 5.90476 29.5954
655 1 22.8016 10.1444 48.5211
657 1 29.2889 9.92613 47.3377
656 1 26.5817 12.6939 49.6723
658 1 33.1467 12.6188 48.3153
661 1 4.17367 14.6147 47.2694
660 1 1.17982 16.911 49.9757
663 1 8.16695 14.3738 48.3043
665 1 12.649 14.2142 48.4287
667 1 16.6118 14.5336 49.5012
669 1 23.4532 14.6516 48.2726
672 1 32.6416 17.3683 48.6583
662 1 5.70471 16.927 50.8323
677 1 8.18318 19.7045 48.1457
693 1 12.7426 24.3849 49.2146
679 1 12.3942 19.6227 49.0943
681 1 16.2659 18.9402 49.7929
431 1 23.1318 5.79764 31.0735
565 1 8.32817 6.18056 41.8423
1831 1 23.5141 28.4642 31.2099
1893 1 4.59721 27.7507 34.842
2043 1 29.1736 27.9559 47.169
1901 1 22.8576 28.3636 37.5656
1759 1 19.3167 28.2475 24.5448
2033 1 3.4639 28.3677 47.4841
676 1 5.30704 21.748 50.8019
741 1 30.598 14.4308 50.7715
1104 1 30.9314 21.899 78.3984
705 1 7.38447 6.03405 55.0193
636 1 9.80676 8.46656 51.705
638 1 14.3685 7.37537 52.9354
1111 1 11.1482 23.6169 78.4818
640 1 20.4144 8.02845 51.7687
712 1 27.5637 8.04021 54.2297
664 1 10.2811 17.1477 51.2508
2113 1 30.0036 28.6792 51.7578
717 1 2.42745 10.4243 53.9059
1100 1 21.158 21.3601 79.072
650 1 9.89319 12.4775 51.9921
652 1 14.3324 12.8192 52.4431
723 1 17.8929 10.064 53.916
725 1 23.6729 9.7242 52.9851
2459 1 22.9943 28.225 75.9809
727 1 30.5282 10.486 51.6488
731 1 2.92712 15.1466 54.1012
733 1 7.73656 14.7302 54.3002
666 1 13.8736 16.5077 52.0499
737 1 17.3549 14.6489 54.2813
779 1 19.0625 5.61066 59.1039
739 1 23.6606 14.5491 52.8907
2385 1 9.79308 28.1518 74.198
745 1 3.11652 19.7157 53.3727
747 1 7.64015 19.5607 54.2378
751 1 17.8093 18.9259 53.8034
753 1 23.6542 19.3358 52.5221
2183 1 31.1182 28.3352 56.2126
786 1 0.419809 12.4067 63.0984
759 1 2.60114 24.0319 53.3351
761 1 7.49723 23.5903 53.9987
954 1 0.473807 21.4674 73.0251
680 1 14.6808 22.134 52.7307
765 1 18.1292 23.8996 53.1471
1059 1 23.1244 5.88812 76.3941
767 1 23.5843 23.9402 52.875
987 1 16.3316 5.81511 73.3349
728 1 33.8444 13.0591 53.0637
2455 1 10.9865 28.3217 78.8133
714 1 34.154 8.32008 53.1811
648 1 5.28548 12.6777 51.2664
694 1 14.856 26.6825 52.5196
692 1 10.0196 26.4651 51.4388
756 1 34.0162 21.6861 52.8612
768 1 27.6212 25.8425 54.5791
770 1 33.9319 26.324 53.2231
2323 1 32.8762 28.0952 64.9196
704 1 4.43599 7.76599 57.4992
706 1 9.00536 7.80518 58.5556
730 1 0.931046 16.9389 56.5401
708 1 15.3338 7.19661 56.6856
710 1 21.4521 7.73906 56.3372
719 1 7.14734 10.2086 54.7704
718 1 5.06474 12.4758 57.3421
720 1 9.89579 12.6746 57.9735
721 1 11.8874 10.0535 55.5255
722 1 15.6114 12.526 57.0353
724 1 21.0245 12.2141 55.9514
795 1 25.1961 10.3927 57.3306
726 1 26.9537 12.7024 53.7014
797 1 31.3774 10.2466 56.0111
732 1 5.25614 17.1278 57.4572
735 1 11.4584 14.7871 54.8093
736 1 15.255 17.0662 56.5244
809 1 24.5878 14.7505 57.1851
740 1 27.4503 17.1206 54.3249
811 1 31.2157 15.025 56.2259
845 1 7.69957 6.17117 65.7691
734 1 9.34854 17.4429 57.6813
749 1 11.6234 19.4405 54.9597
738 1 20.9877 17.3822 55.5565
823 1 24.8802 19.5469 56.633
825 1 31.4015 19.0265 55.5817
769 1 30.3692 23.8215 51.545
746 1 4.38458 21.6861 56.8158
763 1 11.8801 24.0507 55.0008
750 1 15.5986 21.8277 56.5837
752 1 20.9531 21.8606 55.1782
837 1 24.9013 23.5244 57.3559
754 1 27.5029 21.1322 54.1357
839 1 31.5749 23.5417 56.0792
760 1 4.39514 26.3806 57.0745
1021 1 34.003 14.6512 69.1827
762 1 9.61518 26.4845 58.2269
764 1 14.8118 27.0867 56.5049
1118 1 30.9089 26.3511 78.5704
766 1 21.5733 25.8952 55.418
2181 1 24.8517 28.3921 57.6799
1116 1 26.623 26.2542 78.3466
778 1 16.225 8.3134 61.428
780 1 22.5446 8.62287 60.1814
782 1 28.7609 7.8913 59.3244
853 1 32.3788 6.3435 60.9222
787 1 2.34021 10.3086 59.8174
789 1 6.75065 9.73729 60.9397
791 1 13.4205 10.1276 59.6633
793 1 18.1383 10.0845 58.6262
792 1 16.0332 13.1629 61.3758
794 1 22.7021 12.531 59.9334
796 1 28.7622 12.3603 59.1499
867 1 31.6313 10.609 60.0672
801 1 2.75971 15.0783 60.5367
803 1 7.32852 14.4459 60.8194
805 1 12.7026 14.9031 60.0961
806 1 16.3937 17.1911 61.1057
807 1 18.9213 14.5728 58.1756
808 1 22.598 17.119 59.8504
810 1 28.5305 16.9678 58.5755
881 1 32.0094 14.99 60.8485
815 1 2.00549 19.5657 59.1543
817 1 6.51557 19.5933 60.2408
819 1 13.1466 19.6202 59.8486
821 1 18.8117 19.0205 58.4943
822 1 22.3433 21.5986 59.7308
895 1 32.3814 19.0728 60.0945
829 1 2.48123 23.9665 59.337
831 1 7.01308 24.4232 60.4375
748 1 8.8091 22.0987 57.9107
833 1 12.719 24.1452 58.7567
820 1 16.057 21.6442 61.2116
835 1 19.1271 23.5649 58.6919
824 1 28.5667 21.0922 58.6294
909 1 32.5517 23.5233 60.6994
1058 1 20.6974 8.1328 78.7265
2391 1 28.5387 28.0934 70.8319
834 1 16.3093 26.3759 60.8661
711 1 24.1668 5.88794 53.1017
836 1 22.4115 26.4529 59.9588
2321 1 26.8221 28.3478 66.5838
838 1 28.7103 25.7436 59.1684
774 1 4.0658 8.22146 63.6343
776 1 11.0476 7.94025 62.1471
2179 1 19.2676 28.1659 57.7803
850 1 23.7722 8.08981 64.6902
852 1 30.3778 8.33457 63.8666
788 1 4.63216 13.0118 63.5679
859 1 8.11117 10.3059 65.2406
790 1 10.35 12.5031 62.0609
861 1 13.899 10.0743 63.7847
863 1 19.6889 9.31312 62.8796
865 1 26.7143 10.2964 61.9512
864 1 23.5621 12.2784 64.8752
866 1 29.6323 12.3407 62.9321
802 1 4.79636 17.7315 63.0885
804 1 10.1357 17.1362 62.43
875 1 13.9622 14.6626 64.2799
877 1 20.1518 14.8555 63.0162
879 1 25.6761 14.8004 61.692
880 1 28.6895 16.9287 63.6554
887 1 7.98124 19.4798 64.996
889 1 13.8496 19.5835 63.944
891 1 19.8502 19.3156 62.848
893 1 25.8093 19.3609 62.0071
878 1 23.4967 16.9418 64.5168
816 1 3.54779 21.5055 63.4372
818 1 10.3213 21.9876 62.2308
903 1 13.8489 24.0909 63.3137
905 1 19.5054 24.0217 62.4802
907 1 26.0199 23.8561 61.5771
892 1 23.8313 21.5922 64.2115
894 1 29.6836 21.3547 63.1983
964 1 33.1821 23.568 65.5228
830 1 4.32249 25.6833 63.0389
832 1 10.6471 25.9317 62.6232
1114 1 20.4212 26.0012 78.986
906 1 23.308 26.0743 64.6842
908 1 29.7495 25.9852 63.6332
844 1 5.50467 8.30948 68.1392
846 1 11.9399 7.94907 66.8458
848 1 17.3955 7.78737 65.8937
716 1 0.463233 13.2167 56.3746
922 1 31.0131 8.12126 67.6643
857 1 1.47868 10.1531 66.5137
858 1 5.25024 12.8187 67.6744
860 1 11.1949 12.6877 66.615
931 1 15.072 10.1339 67.8083
862 1 17.3979 12.4528 65.6149
933 1 20.4955 10.1766 67.3988
935 1 27.4424 9.79693 66.1621
937 1 33.5758 10.8899 65.0852
936 1 30.6951 12.7769 67.7237
871 1 1.23503 14.7569 66.3807
873 1 7.80936 15.1096 64.8667
872 1 5.1057 17.0361 67.6823
945 1 14.3001 14.6682 68.4914
874 1 11.0945 17.3832 66.9258
876 1 17.8045 16.4348 65.8795
947 1 20.7333 14.0575 67.2324
949 1 27.0889 14.5552 66.2366
951 1 33.0924 14.6954 65.2935
950 1 30.4832 17.6233 67.9004
885 1 1.27091 19.8548 66.0367
961 1 21.0171 18.8545 67.2734
963 1 27.3006 19.1438 66.1197
1033 1 33.177 19.4988 65.7116
899 1 2.11341 24.2385 65.8582
886 1 5.50073 21.3891 67.2224
901 1 7.78835 23.9651 65.4378
888 1 11.6071 21.5912 66.7019
890 1 17.2702 21.4201 65.1073
975 1 20.7866 23.7006 67.1364
977 1 26.9898 23.8462 66.1592
1035 1 30.6669 21.5217 67.9587
678 1 10.2472 21.6694 51.8202
900 1 4.9779 26.52 68.4765
902 1 11.4533 26.1211 66.545
904 1 17.787 26.0836 65.3142
978 1 30.6583 26.3345 68.0476
914 1 6.2763 8.19091 72.3816
916 1 12.5188 8.18105 71.1364
918 1 18.8128 7.92038 70.339
920 1 25.0449 7.67574 69.1081
2457 1 17.1527 27.901 77.4828
992 1 30.9872 7.88665 72.1032
927 1 3.30337 10.1831 70.752
929 1 9.04313 10.4765 69.2394
930 1 12.6864 12.2411 71.1164
932 1 17.9557 12.4259 70.5176
1003 1 21.7287 9.97456 71.9642
934 1 24.9242 12.5016 69.2377
1005 1 27.9548 10.1026 70.64
941 1 2.90614 14.6723 70.867
943 1 9.15075 14.9242 69.277
944 1 12.5325 17.6065 70.8883
1017 1 22.02 14.4984 72.2746
948 1 24.0024 16.9396 68.9222
1019 1 28.6933 14.734 70.3226
955 1 3.01863 19.1464 70.3478
942 1 6.81806 17.2276 72.1311
957 1 9.11934 19.0972 69.4987
959 1 15.266 18.9847 68.3814
946 1 19.4033 17.0849 70.2331
1031 1 21.5938 19.9037 71.7905
1020 1 28.1133 19.0995 70.5068
969 1 4.12241 23.2856 70.2726
971 1 8.73315 23.722 69.7654
958 1 12.5511 21.4467 71.3398
973 1 14.9109 23.6965 68.0048
960 1 18.7457 21.81 69.9689
1045 1 22.3329 24.2285 72.0168
962 1 24.5196 21.6633 68.6884
1047 1 28.515 23.5936 70.4482
972 1 12.6871 26.1822 71.2035
1042 1 13.6964 25.8578 75.2857
974 1 18.6234 26.6383 69.9922
1077 1 33.4453 10.2841 75.3864
976 1 24.7272 26.3719 69.2471
1048 1 31.9572 26.2627 72.6502
915 1 8.92038 5.64585 69.6985
2317 1 14.7498 28.1252 68.0847
986 1 13.3907 8.39572 75.6112
923 1 33.6654 5.93471 65.0158
988 1 19.4834 7.32209 74.7583
990 1 26.0889 7.34527 74.0804
1102 1 26.7414 21.5202 78.3722
2245 1 7.74419 28.0317 64.8407
997 1 4.50715 10.5872 75.0819
928 1 6.70326 13.1169 72.3573
999 1 10.0844 10.3436 73.7492
1001 1 16.0419 10.4209 73.3692
1002 1 19.1987 12.7204 75.0204
1004 1 25.4422 12.7052 73.2339
1075 1 28.9573 10.1569 75.3306
1006 1 31.4788 12.583 72.4175
1011 1 3.38516 14.8684 75.1585
1013 1 10.5564 14.9187 73.8527
1015 1 16.1063 15.2088 72.9507
1016 1 19.5946 17.4825 75.0424
1089 1 29.2793 14.893 74.9075
1025 1 3.50747 19.1293 75.14
1027 1 10.1812 19.3479 74.2028
1029 1 16.1287 19.5559 73.1206
1018 1 25.8987 17.0374 73.3555
1103 1 28.8371 19.025 75.3497
1022 1 31.8823 16.8226 72.3936
1039 1 3.92982 23.8428 74.9774
956 1 6.90954 20.8306 72.7639
1041 1 9.82602 23.7055 74.094
1043 1 15.9376 24.2996 72.7244
1030 1 19.3792 21.6927 74.7388
1032 1 25.0976 21.6527 72.8664
1117 1 28.675 23.7761 74.9938
1034 1 31.751 21.5697 72.5133
970 1 6.66421 26.0716 72.8968
783 1 31.3702 5.77041 56.4162
1044 1 19.889 25.9509 74.4065
1046 1 25.8524 26.0835 73.2718
1040 1 7.49203 26.1731 77.0968
982 1 1.48853 8.45847 77.8698
984 1 8.08616 8.18387 76.5103
2463 1 33.7056 28.2106 75.3394
742 1 33.4951 17.0458 52.7866
1038 1 1.20181 26.4452 77.9072
713 1 30.6792 6.02087 51.8083
1060 1 26.7427 7.6135 78.445
1062 1 31.2704 7.64495 78.7725
996 1 1.51363 12.5472 77.9922
998 1 7.75058 12.7698 77.2186
1069 1 10.4238 10.506 78.4512
1000 1 13.6632 12.9368 75.1928
1071 1 17.0212 10.4204 77.313
1073 1 23.5466 10.845 75.9508
1074 1 27.2486 12.1051 78.2674
654 1 20.5097 12.7262 51.3766
1076 1 31.0067 12.517 78.7134
1083 1 11.376 15.4953 78.2266
1014 1 13.6956 17.5983 76.0852
1085 1 17.5108 15.2056 77.3712
2389 1 21.9614 28.3471 72.2575
1087 1 23.501 14.9756 76.0862
1088 1 26.8177 16.8786 78.0113
1091 1 33.7551 14.701 75.9201
1010 1 0.852808 17.2202 78.3219
1012 1 7.25253 16.7925 76.7814
1097 1 10.791 19.0537 78.1939
1099 1 17.137 19.9753 77.3798
1101 1 23.28 19.0615 76.5665
1105 1 33.386 19.3004 74.9624
1090 1 31.5217 17.232 78.5377
1024 1 0.943333 22.0089 77.9348
1026 1 7.15843 21.5557 77.3208
1119 1 33.5113 23.9694 75.5924
1028 1 13.4449 22.0947 75.5839
1113 1 17.1098 23.7882 77.3569
775 1 6.85238 5.81764 60.9508
1115 1 23.1157 23.4697 76.0884
2243 1 1.63609 28.1075 66.3967
983 1 3.88227 5.95861 75.0148
2253 1 32.182 28.3325 60.1463
2315 1 8.91705 28.2455 69.6794
755 1 29.633 19.1696 51.2145
634 1 5.5148 7.89914 51.3324
1052 1 2.52512 8.37745 82.8152
1330 1 33.8777 25.8021 98.2526
1054 1 8.52422 7.59341 81.3631
1056 1 14.8428 7.78426 80.219
1302 1 33.6695 17.0454 97.7995
12061 1 0.32619 12.7217 101.297
12087 1 0.608357 21.755 101.829
1066 1 2.0197 12.6334 81.8622
1067 1 5.39001 10.5879 79.5339
1068 1 8.63865 13.0795 80.9518
1070 1 14.0176 12.9139 79.7011