ITEM: TIMESTEP
254000
ITEM: NUMBER OF ATOMS
16000
ITEM: BOX BOUNDS pp pp pp
3.9902614884124432e-01 1.0180097385116301e+02
5.7152062303124254e+00 9.6484793769682142e+01
-5.2219088947741596e+00 1.0742190889477112e+02
ITEM: ATOMS id type x y z
46 1 10.6892 20.4751 -4.9439
5822 1 33.9144 14.4714 13.3615
1547 1 16.2201 27.7717 4.78449
6 1 15.3452 8.26249 -4.12714
8 1 19.2376 7.69353 -4.61845
10 1 24.4691 7.89915 -3.8393
12 1 28.786 7.93679 -2.54666
14 1 32.8517 8.03684 -1.91469
381 1 6.39033 14.5133 22.6573
85 1 3.51236 10.3875 -2.98466
87 1 8.07393 10.0935 -2.11649
145 1 12.6393 5.8602 4.9292
20 1 15.0161 12.9754 -4.77922
89 1 12.8049 10.7747 -1.81018
22 1 19.7089 12.5972 -4.07256
24 1 24.2069 12.5802 -3.49425
26 1 28.8434 12.7011 -2.24145
28 1 32.9385 12.6472 -1.70878
99 1 3.36484 15.0553 -2.63034
101 1 8.03619 14.9643 -2.3779
10943 1 0.815161 8.31655 6.48609
151 1 25.3799 5.93912 6.35181
36 1 19.819 17.1951 -3.89147
42 1 33.2581 16.5356 -2.43518
113 1 3.97563 19.6653 -2.60915
115 1 8.16657 18.7785 -2.07089
117 1 12.8117 19.0919 -1.65814
38 1 24.5605 17.2193 -3.8295
40 1 29.1485 17.3465 -2.76004
127 1 3.78941 24.4091 -3.34119
10969 1 0.533973 17.2779 5.38233
129 1 8.12412 23.372 -2.56566
48 1 15.1718 21.2532 -4.86067
133 1 17.4387 24.023 -1.51599
50 1 20.0553 21.9188 -4.68435
52 1 24.6118 21.631 -4.00691
54 1 28.6089 21.7479 -3.06684
1691 1 24.3469 28.0353 19.2974
10917 1 0.967365 21.636 -0.758654
62 1 15.1658 26.1294 -4.35754
64 1 19.9209 25.878 -3.95644
66 1 24.6944 26.299 -3.64121
68 1 28.9035 25.785 -3.07643
70 1 33.3863 26.1669 -2.13887
367 1 6.00823 9.85776 22.7824
10878 1 0.630428 7.9954 -0.118111
72 1 4.77807 7.96715 -0.0199335
74 1 10.4425 8.12762 1.32779
7031 1 34.1389 27.8995 7.2757
10891 1 1.53875 12.7005 -0.436991
86 1 6.0565 12.1636 0.551099
88 1 10.4692 12.48 0.48847
91 1 17.3044 10.4036 -1.37104
93 1 21.8343 10.3412 -0.971446
95 1 25.8432 10.223 0.0749861
97 1 30.8799 10.3132 0.755859
10904 1 0.772868 17.0549 0.0673306
102 1 9.85662 17.2084 1.2518
103 1 12.4108 15.06 -1.7479
105 1 17.2507 15.2728 -1.26861
107 1 21.8876 14.8903 -0.723331
109 1 26.4981 14.873 0.0120078
111 1 31.1898 14.98 0.920034
100 1 5.61414 16.9341 0.698661
104 1 14.5071 17.3311 1.8461
119 1 17.3233 19.4806 -1.21314
121 1 21.9509 19.1655 -1.03747
123 1 26.4734 19.3967 -0.228791
125 1 31.3786 19.4222 0.839965
114 1 5.35234 21.3493 0.705063
116 1 10.1804 21.895 1.12357
131 1 12.7226 23.1551 -1.51933
118 1 14.8249 21.9385 1.91772
135 1 22.1844 23.8957 -0.791054
137 1 26.52 24.0975 -0.501682
56 1 33.2886 21.5267 -2.21052
139 1 30.9612 23.9546 0.260467
10930 1 0.710897 25.8617 -0.230072
128 1 5.49905 26.0435 0.308402
130 1 9.52724 25.6248 0.383881
132 1 14.4345 26.307 1.39442
7161 1 32.7039 28.4034 20.4651
1685 1 10.8972 28.2865 17.3552
76 1 14.9529 7.48415 1.53073
78 1 19.4556 8.12505 2.33811
80 1 23.3068 8.22778 2.60956
82 1 27.8422 8.07671 3.24957
84 1 32.4725 7.69063 4.20199
155 1 3.15633 10.2048 3.2101
157 1 7.78998 10.1828 3.56306
90 1 14.7399 12.7068 1.796
159 1 12.498 10.364 3.85614
92 1 19.0407 12.5145 1.95026
94 1 24.2553 12.9723 2.60715
96 1 28.2013 12.627 3.57811
98 1 32.8143 12.4617 4.39257
169 1 3.59992 14.887 3.10352
171 1 8.05946 14.775 3.88485
173 1 11.9629 14.7993 4.32532
175 1 16.5869 14.6131 5.04003
110 1 28.1034 16.9166 3.34011
112 1 32.5781 16.9237 4.09856
183 1 3.07892 19.4771 3.27703
185 1 7.41712 19.0763 4.48293
187 1 12.1615 19.4758 4.60927
106 1 19.0521 16.9084 1.92533
108 1 23.6207 17.1939 2.64524
122 1 23.5077 22.1731 2.4897
197 1 3.09348 24.0728 3.48912
199 1 6.86983 23.3712 3.91965
201 1 11.4882 24.0492 4.28075
120 1 19.5351 21.1117 1.52161
203 1 16.7534 23.6573 4.63134
124 1 28.0515 21.452 2.96315
126 1 32.8189 21.3608 3.96954
73 1 8.66292 6.10814 -1.97796
5848 1 33.6509 23.2937 13.6597
134 1 19.0669 25.9133 1.60301
136 1 24.04 26.0204 2.43065
138 1 28.1016 26.3329 3.16268
140 1 32.1133 25.5249 3.67898
142 1 5.47064 7.72063 6.52401
144 1 9.99956 8.40767 6.9924
149 1 21.2946 5.995 6.20891
348 1 25.9634 25.7458 22.4124
308 1 31.3897 12.616 22.7188
156 1 5.30286 12.3752 6.73176
158 1 10.0499 12.3003 7.53022
160 1 14.4996 12.5126 7.65037
161 1 17.1275 9.99317 4.89479
162 1 18.468 12.8128 8.58709
163 1 21.5317 10.6834 5.66873
165 1 25.3381 10.4277 6.31144
167 1 29.8567 9.64655 6.83932
5913 1 33.9287 23.1122 20.5607
172 1 9.92443 16.9578 6.86108
177 1 21.2353 14.6836 5.46889
179 1 25.7231 15.0813 6.13358
181 1 30.069 15.0239 6.52275
170 1 5.02414 17.0201 6.95078
174 1 14.0524 17.1563 7.79381
189 1 16.746 19.4582 4.50064
191 1 21.5528 18.8156 5.13785
193 1 25.6857 19.6321 6.12095
195 1 29.6574 19.3435 6.86839
223 1 29.4314 5.78646 13.3257
184 1 5.29139 21.0739 6.84978
186 1 10.0138 21.5091 7.1507
188 1 14.2687 21.6394 8.1231
190 1 18.9169 21.9769 8.29366
205 1 20.8863 23.5065 5.28873
207 1 25.2109 24.047 6.00091
209 1 29.9237 23.8046 6.57545
10995 1 0.687535 26.0623 5.92692
198 1 4.84098 25.6221 6.63405
200 1 9.27312 25.7314 7.4023
202 1 13.913 25.677 8.08318
204 1 18.7997 26.0698 8.23188
1693 1 28.9476 28.2143 19.5541
217 1 16.1309 5.85415 11.8366
281 1 1.7782 6.31563 15.5037
147 1 16.8082 5.92303 5.59363
146 1 14.4425 8.46559 8.20714
148 1 19.1016 8.46223 9.01033
150 1 22.6896 7.96926 9.84826
152 1 27.6286 8.05255 9.79026
154 1 32.1307 8.24828 10.7265
225 1 2.70032 10.5519 9.14695
227 1 7.3423 10.0447 10.3843
229 1 12.0253 10.3216 10.7476
231 1 15.8555 10.1542 11.3587
233 1 20.4258 10.226 12.1662
164 1 22.955 12.5473 9.07828
235 1 25.0931 9.86228 12.4797
166 1 27.5502 12.8219 9.82209
168 1 31.6297 12.194 9.87394
239 1 2.98905 14.5607 9.16847
241 1 7.29246 13.8079 9.68088
243 1 11.7035 14.9029 10.8459
245 1 16.0683 15.3003 11.6345
247 1 20.4038 14.4581 12.578
180 1 27.5495 17.2792 9.86693
253 1 2.75183 19.2516 9.58124
255 1 7.42686 19.2496 10.2637
257 1 11.3628 19.4511 10.9489
259 1 16.3006 19.2189 11.2752
176 1 18.4673 17.4669 8.12005
261 1 20.4716 18.7539 12.2642
178 1 22.7921 17.1401 9.17731
182 1 31.6662 16.4688 10.8305
267 1 2.42914 23.5632 9.63384
269 1 7.02901 23.8092 9.98102
271 1 11.4913 23.3006 11.3594
273 1 16.523 23.6992 11.4948
275 1 20.4388 23.5515 12.0402
192 1 22.9954 21.0818 8.62921
194 1 27.3812 21.3452 9.81585
196 1 31.3372 21.2542 10.0763
346 1 21.6323 25.9402 22.1037
344 1 17.5268 25.8876 21.4697
206 1 23.312 25.7284 9.14807
208 1 27.166 25.8784 9.81941
210 1 31.734 25.8532 10.3195
212 1 4.54676 8.41315 13.1535
214 1 8.63959 7.9643 13.5378
216 1 13.2567 7.92733 14.611
218 1 18.3133 8.07521 14.8874
342 1 12.8442 25.8968 20.8416
220 1 22.898 8.18346 15.4333
79 1 21.7458 5.82976 -0.844835
295 1 1.77471 10.1774 15.2694
226 1 4.80283 12.8013 12.583
228 1 8.59378 12.7359 13.1474
230 1 13.0502 12.6036 13.9653
232 1 17.626 12.3795 15.14
234 1 23.3441 12.4483 15.3737
237 1 29.8143 10.5145 13.2138
215 1 11.876 6.16424 10.5899
240 1 4.72317 16.5864 12.846
244 1 13.2807 17.4077 14.5075
246 1 17.5357 16.7553 15.1885
248 1 22.4123 16.9049 15.0345
249 1 24.955 14.9735 11.6738
251 1 29.2455 15.2262 13.4862
353 1 6.03322 6.01825 22.6063
242 1 8.86183 17.2616 14.0783
263 1 24.3912 19.5563 12.6511
265 1 29.0061 19.2103 13.6485
340 1 8.58425 26.3011 19.9672
254 1 4.79558 21.2761 13.1225
256 1 8.9358 21.9611 13.8164
258 1 13.3243 21.6271 14.361
260 1 17.7425 21.3897 15.1952
262 1 22.119 21.2216 15.906
277 1 24.6615 23.8662 13.027
279 1 29.8894 23.7949 13.7532
264 1 26.8754 21.1533 16.159
1471 1 3.42611 28.3617 -3.01749
1543 1 7.58691 28.0471 3.49153
268 1 4.68207 25.9179 12.9224
270 1 8.55751 26.284 13.6424
272 1 13.6674 26.3985 13.9007
274 1 17.7315 25.9211 15.0769
276 1 21.9293 25.8612 15.7821
1623 1 28.8498 27.9045 13.2146
1687 1 15.5488 27.9438 17.6655
334 1 26.387 20.9984 21.9574
332 1 21.6484 21.2736 21.8977
222 1 27.2028 8.02662 16.1117
330 1 17.5513 21.0471 21.8651
224 1 31.2938 8.09586 16.9032
297 1 6.55299 10.2666 16.5338
299 1 11.2793 10.0813 16.9125
301 1 15.4081 10.7058 17.6468
303 1 20.5184 10.5223 18.2893
236 1 27.2377 11.9132 16.1088
238 1 31.7912 12.3093 16.1187
309 1 1.95617 14.358 15.6847
311 1 6.10167 14.7279 16.6435
313 1 11.2151 14.8115 17.1622
315 1 15.838 14.627 17.9635
317 1 20.4878 14.5322 18.2098
319 1 24.6325 14.5884 19.0895
252 1 32.0784 17.03 16.4735
323 1 2.67027 19.1266 15.6808
325 1 6.40869 18.7308 16.6841
327 1 11.0117 19.1086 17.0058
329 1 15.4117 18.8942 18.3441
331 1 20.1206 18.9262 18.3932
333 1 24.8849 19.0131 19.0848
250 1 26.1848 16.0457 15.7957
337 1 2.19759 23.6796 15.8855
324 1 3.7725 21.6082 19.2021
339 1 6.39799 23.1732 16.4575
341 1 11.049 24.2292 17.3041
326 1 8.39922 21.8838 19.6986
343 1 14.7741 23.4894 18.4288
345 1 19.2597 23.5199 18.7891
347 1 23.825 23.3855 19.2057
349 1 28.4378 23.6261 19.9145
266 1 31.3941 21.1969 17.1395
338 1 4.2782 26.3799 19.0318
1689 1 20.1494 28.396 18.4517
289 1 19.8589 5.73332 18.4317
278 1 26.6933 25.6848 16.422
280 1 30.8186 25.7903 16.895
1545 1 11.4872 27.9694 4.1214
282 1 3.81121 7.83748 19.1556
284 1 8.45957 8.4976 19.4948
286 1 13.025 7.78249 20.5008
288 1 17.7746 7.8819 21.0679
290 1 22.4186 7.91681 21.79
1475 1 12.6855 27.986 -1.83961
292 1 26.6564 7.56361 22.5451
7096 1 33.5863 28.0062 13.9932
296 1 4.08382 12.575 19.383
365 1 1.31308 9.9029 22.2574
1621 1 24.9739 27.7533 12.7524
298 1 8.6082 12.6168 19.9084
300 1 13.2555 12.5056 20.4342
302 1 17.8454 12.1771 21.0294
304 1 22.201 12.7177 22.069
305 1 24.5903 10.046 19.4281
306 1 26.8386 12.1183 22.1487
307 1 29.2442 10.1603 19.4353
5874 1 33.9837 10.3929 19.7423
1617 1 16.2299 27.6018 11.04
1613 1 6.72583 28.3198 10.1341
310 1 3.7334 16.6268 19.492
1549 1 20.9576 27.8831 5.55734
314 1 13.054 16.5877 21.0118
316 1 17.537 16.7821 20.9977
320 1 26.7586 16.9982 22.3227
321 1 29.182 15.0204 18.9539
5887 1 33.6521 14.9025 19.8493
393 1 1.27419 18.5814 22.1742
312 1 8.27795 16.8882 20.2567
318 1 21.9196 16.7527 22.0123
335 1 29.3432 19.3814 19.617
5900 1 33.5533 18.9806 20.5355
407 1 1.81601 23.6318 21.9373
1553 1 29.8659 27.9828 6.62242
1611 1 2.29093 28.2073 9.7952
328 1 12.3812 21.311 20.8754
1619 1 20.2113 27.8082 12.1761
1615 1 11.6928 28.0187 10.5502
409 1 5.53612 24.1422 22.5646
395 1 5.97627 19.2758 22.452
4 1 11.0104 8.22269 -5.27923
58 1 6.68105 25.7095 -5.22739
352 1 3.36736 7.5016 25.696
356 1 12.5588 7.82074 26.1368
350 1 30.588 26.4319 22.9535
688 1 0.749265 25.9115 50.7945
6147 1 34.2862 14.6633 41.6252
366 1 3.81283 12.0447 25.4428
369 1 10.674 10.254 23.0828
371 1 15.338 9.80144 24.1222
373 1 19.2218 9.80866 25.1226
375 1 24.0072 9.79935 24.8406
377 1 27.9245 10.1639 25.715
5939 1 32.6201 10.0028 26.2625
383 1 10.7719 14.8331 23.3409
385 1 15.097 14.4961 24.1947
387 1 19.0567 14.5985 25.0056
389 1 24.0017 14.3102 25.1665
391 1 28.4745 14.4219 25.8454
380 1 3.45957 16.831 25.5642
449 1 0.92016 14.9303 28.108
397 1 10.5671 19.4561 23.6699
399 1 15.0765 18.6389 23.8422
401 1 19.526 19.028 25.3827
403 1 23.8401 18.7263 25.2458
405 1 28.4252 19.1563 25.5729
322 1 31.3254 17.2453 23.2084
394 1 3.20158 22.1447 25.6141
396 1 8.15735 22.0113 25.7595
413 1 14.9452 23.3423 24.1442
398 1 12.5438 21.2882 26.4268
415 1 19.4041 24.1643 24.7302
417 1 24.1269 23.426 25.2116
419 1 28.3236 23.3529 25.8481
5978 1 32.2537 23.7536 26.5816
408 1 2.67004 26.7642 25.2799
6173 1 33.7673 23.7748 41.7372
336 1 30.6642 21.9882 23.4298
1761 1 24.1556 28.1541 25.3526
640 1 20.9618 7.69391 50.7999
354 1 8.11262 7.58014 25.8094
563 1 4.28425 5.87613 41.6083
358 1 16.929 7.71915 27.3843
360 1 21.0978 7.55749 27.8255
362 1 25.6662 7.43978 28.9958
364 1 30.2883 8.16598 29.6914
648 1 5.24516 11.8787 50.9618
435 1 0.628814 9.91251 28.1563
368 1 7.83128 11.979 26.1213
437 1 5.22647 9.55942 29.2075
439 1 9.7428 9.72519 29.3551
370 1 12.5776 12.5123 26.7728
372 1 17.0913 12.1782 27.9764
374 1 21.6663 12.3231 28.0781
376 1 26.1074 12.0593 28.6868
378 1 30.1048 12.4513 28.9784
571 1 22.7909 5.96734 44.6625
382 1 7.97324 17.3378 26.9372
451 1 5.11485 14.0038 28.6909
453 1 9.70008 14.0931 28.93
384 1 12.3822 17.2739 26.949
5952 1 33.1618 14.6083 26.4616
411 1 10.4462 23.9942 23.2038
465 1 5.41647 19.7781 28.856
467 1 9.68153 20.1833 29.5403
469 1 14.2604 19.1094 30.6312
386 1 16.8909 16.4225 27.6269
388 1 21.6135 17.0785 28.065
390 1 25.4013 16.4034 29.0744
392 1 30.804 16.5085 29.3414
5965 1 32.9029 19.8448 26.6565
294 1 31.0236 8.14429 22.8286
479 1 5.33549 23.812 28.6734
481 1 9.98222 23.9902 29.5104
400 1 17.0473 21.0466 27.5631
402 1 21.2159 21.5578 27.917
404 1 25.8951 21.0233 29.0234
406 1 30.472 21.0066 29.5256
410 1 7.2764 26.6481 25.6667
533 1 0.51021 18.8244 34.9358
412 1 11.8172 26.0218 26.3402
463 1 0.602106 19.3794 28.3896
414 1 16.9488 26.2378 27.2972
416 1 21.7189 26.4568 28.1209
418 1 25.8181 25.7874 28.7653
420 1 30.3953 25.7518 29.3847
422 1 2.99206 7.64856 31.7619
424 1 7.24828 7.42073 32.4017
426 1 11.8422 7.57254 33.0268
2043 1 28.4078 28.2942 47.6319
633 1 3.52588 5.92724 47.3262
501 1 22.4803 6.03869 37.6867
436 1 2.49251 12.3822 31.8794
438 1 7.14589 12.039 32.3276
440 1 11.7709 12.2272 32.9601
441 1 14.4809 9.82078 30.1223
443 1 18.8321 10.0971 31.0112
445 1 23.366 9.76641 31.5673
447 1 27.603 10.4065 32.1406
6004 1 32.6975 9.94797 33.4304
450 1 2.63623 17.171 31.2796
455 1 13.8484 14.8305 30.6728
457 1 19.1874 14.6821 31.2164
459 1 23.1873 14.1076 31.8959
461 1 27.7104 14.8916 33.1833
6017 1 32.2985 14.1754 32.6617
452 1 7.45784 17.0226 31.734
454 1 11.2705 16.7345 32.6258
471 1 18.9496 19.2616 31.0486
473 1 23.7046 18.8037 31.8339
475 1 28.1705 18.799 32.6011
6030 1 32.6841 18.8304 32.9402
464 1 2.43046 21.9366 31.7058
466 1 7.27302 21.467 32.3267
483 1 14.5314 23.6691 30.2173
468 1 11.7484 21.8592 33.3022
485 1 18.7066 23.901 30.7629
487 1 23.3903 23.609 31.2806
489 1 27.6073 23.3009 32.256
6043 1 32.3776 23.4931 32.5356
478 1 2.48232 25.9209 31.7317
480 1 7.02509 26.2146 32.291
482 1 11.6091 26.1792 33.002
1757 1 14.6363 27.9637 24.351
6134 1 34.013 10.01 42.071
676 1 5.05455 21.241 50.6963
1969 1 17.6408 28.2412 43.3445
6095 1 33.5234 19.1797 37.7093
428 1 16.455 8.0579 34.5953
430 1 20.5853 8.2873 34.0391
432 1 25.8732 8.44372 35.304
434 1 29.7147 7.3773 35.0986
700 1 32.4889 26.6932 48.7868
507 1 4.67454 10.0084 34.6475
509 1 9.04008 9.84171 35.9125
511 1 13.7683 10.1383 36.6999
442 1 16.2669 11.9501 33.9633
444 1 20.3634 12.2702 34.2036
446 1 24.9117 12.28 35.6791
448 1 29.6241 11.7641 36.2268
521 1 4.91112 14.4832 34.4983
523 1 9.07183 14.508 35.8187
525 1 13.1899 14.8833 36.6076
460 1 24.8724 16.2664 35.5408
462 1 30.1946 16.3632 36.2807
535 1 4.91348 19.1804 34.7419
537 1 9.10207 18.9681 35.7597
539 1 13.2974 18.8064 35.6916
456 1 16.9002 16.5563 33.615
458 1 20.6592 16.7509 34.2458
549 1 4.63893 23.8105 34.6751
551 1 9.40482 23.9624 35.7276
553 1 13.3252 23.5491 36.5791
470 1 16.5413 21.5969 33.9652
472 1 20.8493 21.5914 34.3483
474 1 25.4058 20.6234 34.8739
476 1 30.3244 21.0579 35.6193
6160 1 34.0415 19.3525 42.3865
484 1 16.0986 26.2905 33.9595
486 1 20.7609 26.2004 34.397
488 1 25.2737 25.7541 34.9463
490 1 29.6306 25.7817 35.6124
492 1 2.14346 7.57479 37.8238
494 1 6.67186 8.04504 38.607
496 1 11.2037 7.51144 39.2901
498 1 15.7925 7.57485 40.1579
502 1 24.5962 7.67464 41.5366
1897 1 13.3171 28.1904 36.059
504 1 30.3476 7.77253 40.191
506 1 2.20043 12.169 37.6054
508 1 6.29302 12.8608 38.073
510 1 10.4603 12.3948 38.9926
512 1 15.278 12.3614 39.9798
513 1 18.8019 10.1493 37.4681
514 1 19.8727 12.1437 41.1583
515 1 22.6536 9.96344 37.7942
517 1 27.126 9.58297 38.9496
6069 1 33.1107 10.4189 37.3966
518 1 31.0806 12.3345 40.2829
522 1 6.54848 17.5286 38.416
527 1 17.7567 14.5466 37.4567
526 1 15.668 17.0057 39.7473
529 1 22.3547 14.6517 38.231
531 1 27.0027 14.1705 38.8775
6082 1 33.1943 14.338 37.3479
520 1 2.03333 16.4442 37.4517
524 1 11.0688 17.1163 39.4089
541 1 17.921 18.9839 37.1383
543 1 22.5415 18.5595 37.4411
545 1 27.1347 19.0401 38.6756
532 1 30.587 16.9192 40.3175
534 1 2.04682 21.6693 37.1152
536 1 6.54671 21.5378 38.5532
538 1 11.196 21.7626 39.5133
540 1 15.7071 21.8721 39.8436
555 1 18.722 23.8487 36.8096
542 1 20.2456 21.1057 40.3659
557 1 22.9592 23.488 37.2356
559 1 27.5506 23.6367 38.3398
6108 1 32.832 23.7214 36.8787
546 1 31.0007 21.2942 40.4084
548 1 2.22003 26.3917 38.4684
550 1 6.19465 26.0196 37.8538
552 1 10.6524 26.1747 38.8238
554 1 15.8854 25.8859 39.8255
5940 1 34.2096 11.9823 30.1604
560 1 30.9801 25.9057 39.7999
500 1 19.5551 8.26554 40.718
1827 1 14.1803 27.9201 29.9939
577 1 4.23504 10.1605 40.8641
579 1 8.80745 10.2577 42.0232
581 1 12.7031 9.72415 42.7689
583 1 17.2775 10.2941 43.4625
585 1 21.9874 10.5305 44.1455
516 1 24.3659 12.5318 41.4609
587 1 28.5483 9.84385 43.3506
662 1 5.32683 16.4921 51.0421
591 1 3.87999 14.7059 41.0198
593 1 7.66723 14.869 41.9414
595 1 13.1114 14.4052 42.4569
597 1 17.4152 14.6079 43.5523
528 1 20.2766 16.6798 40.6365
599 1 21.9058 15.1754 44.1407
530 1 24.8576 17.2975 41.2211
601 1 27.7398 14.3703 43.0796
698 1 25.9342 25.7042 50.5474
605 1 3.77496 19.3491 40.5232
607 1 8.40794 19.3874 42.0427
609 1 13.2919 19.1108 42.8874
611 1 17.6478 19.3786 43.2164
613 1 22.1998 19.4999 44.1295
615 1 28.2615 19.7856 43.1607
619 1 3.63983 23.9534 41.1702
621 1 8.93896 23.4279 42.2858
623 1 12.95 24.5548 42.8332
625 1 17.5004 23.8454 43.8758
627 1 21.7138 24.1959 44.0221
544 1 24.7509 22.1183 41.2573
629 1 28.0077 23.7475 42.9619
556 1 19.945 25.467 40.3051
558 1 24.4353 26.0263 40.9464
562 1 1.84883 7.77757 43.9447
564 1 6.26837 7.79345 45.3173
566 1 10.8405 7.7223 45.4345
568 1 15.1954 7.90708 46.0355
570 1 19.7117 7.75653 47.014
572 1 25.7807 8.08901 45.8877
574 1 31.2506 7.66336 44.8622
576 1 1.90585 12.606 44.1279
578 1 6.56705 12.5828 45.3098
580 1 10.9987 12.2384 45.6576
582 1 15.0674 12.6534 46.3258
584 1 19.4033 12.2486 47.2388
586 1 25.6624 12.6814 45.9262
588 1 31.3659 12.4593 44.571
661 1 3.52746 14.5275 47.3995
594 1 10.3375 16.6624 45.4044
596 1 14.7025 17.3602 45.9804
598 1 19.5147 16.5047 46.7742
600 1 25.8259 16.7436 45.7519
671 1 29.3005 15.1081 47.3086
590 1 1.24006 17.5744 44.1141
675 1 3.94625 19.0332 47.6116
592 1 5.38738 17.3799 44.461
685 1 29.1636 19.6529 47.6349
602 1 31.8868 17.4612 44.9728
604 1 1.45542 21.5473 44.5387
606 1 5.32365 21.8999 45.0647
608 1 10.2337 21.7575 45.4412
610 1 14.9398 21.4545 45.6777
612 1 19.3922 21.9336 46.938
614 1 25.1834 21.4515 45.9609
699 1 28.981 23.6145 47.6758
616 1 31.8508 22.1152 44.6216
618 1 1.16006 25.6136 44.4855
620 1 5.87643 26.1685 44.646
622 1 10.9969 26.3974 45.4468
624 1 15.3345 25.9803 46.0656
626 1 19.7911 25.8776 47.0419
628 1 25.3654 26.1728 45.9065
630 1 31.349 26.1773 44.3562
634 1 5.56149 7.3732 50.881
632 1 1.07144 7.59425 50.3293
573 1 28.5383 5.81833 42.944
5926 1 33.0487 6.05732 26.7346
642 1 27.0891 8.29658 50.2724
644 1 31.8662 7.91529 49.2402
647 1 3.78818 10.1661 47.5596
646 1 0.546393 12.1793 50.304
649 1 8.51943 10.1521 48.177
651 1 12.7646 9.94399 48.9023
653 1 16.9219 10.0903 49.9278
655 1 23.6164 9.79311 48.685
656 1 26.1653 12.1672 50.6984
657 1 28.5346 10.5554 47.5891
658 1 32.5625 12.4988 49.0255
663 1 7.90272 14.4477 48.4628
665 1 12.0763 14.9931 49.3336
667 1 16.5255 14.5812 49.5874
670 1 26.2814 16.912 50.3093
669 1 23.1801 14.8297 47.8945
660 1 0.872359 16.8252 50.3029
677 1 7.9464 19.1495 48.0091
679 1 12.2298 19.2705 48.6528
681 1 16.9667 19.4178 49.3254
683 1 23.3572 19.3609 48.5732
672 1 32.7526 17.4235 49.4126
674 1 0.782898 21.4328 49.8663
689 1 3.33248 23.8201 48.2214
691 1 7.9748 23.7728 47.9487
693 1 12.4296 23.944 49.0486
695 1 17.0696 23.5257 49.4917
6056 1 33.0891 5.76886 37.0327
684 1 26.6142 21.9224 50.1963
697 1 22.7144 23.3244 48.6172
686 1 32.5453 22.8485 49.0405
1973 1 28.0053 28.0882 43.0329
1763 1 28.4941 28.0398 25.6473
2039 1 16.8905 28.1822 49.7449
1965 1 8.19118 28.0725 41.9183
1833 1 28.1002 28.2332 31.764
1899 1 17.9786 28.1321 36.6288
7291 1 32.5206 27.972 32.9561
1901 1 22.401 28.3407 37.4593
1903 1 27.0665 28.2979 38.5438
654 1 20.4978 12.4726 51.0039
379 1 1.76362 14.4443 22.9199
853 1 32.1176 5.8191 60.3639
636 1 9.9883 8.06257 52.1115
638 1 14.0107 7.54609 52.5336
711 1 24.8176 5.8026 52.7774
940 1 0.471164 16.3149 73.6253
996 1 0.976188 12.2137 78.3113
983 1 3.58888 6.14659 75.0581
714 1 33.8234 8.10328 53.5295
717 1 2.95706 10.3432 53.832
719 1 7.53888 9.93601 54.2863
716 1 0.430292 13.1339 56.5715
650 1 10.1551 12.4048 51.7394
652 1 14.294 12.2891 52.3331
723 1 17.7484 10.3182 53.5005
985 1 9.46644 6.03137 74.5855
725 1 23.6428 10.2835 53.2947
727 1 30.0529 10.3242 51.9012
726 1 27.6232 12.6624 55.1975
777 1 12.7459 5.82181 59.9027
731 1 3.15997 14.8222 53.931
730 1 1.07977 17.0757 56.2256
666 1 14.4248 16.9646 52.0578
737 1 17.3983 14.4951 53.652
668 1 20.3105 16.8578 51.1361
739 1 23.9311 14.5925 53.2217
741 1 30.0831 14.5094 52.0755
742 1 33.6558 17.2989 53.9594
745 1 2.98405 19.3309 53.7277
747 1 7.46838 18.8083 54.5618
664 1 9.83394 17.6107 51.514
751 1 18.0899 19.118 53.877
753 1 24.0921 18.7661 53.0507
755 1 29.9134 19.3369 51.9325
759 1 2.93078 23.5092 54.0503
2105 1 7.77471 27.9164 54.3475
761 1 6.97585 23.3791 54.5833
678 1 9.35042 22.187 51.6837
680 1 14.0434 21.5935 52.1904
765 1 17.3507 23.6455 53.8669
767 1 24.1882 23.3656 53.1254
769 1 30.4642 23.9311 52.1034
756 1 33.921 21.7996 52.9506
1055 1 11.2037 5.95234 78.3328
1100 1 20.6904 21.6614 78.9208
692 1 9.44908 26.004 51.5777
694 1 13.8162 25.603 52.3022
696 1 20.4094 25.8117 51.4976
2111 1 24.1214 28.172 53.1603
768 1 27.2907 25.7795 54.9144
770 1 34.1561 26.3756 53.3046
704 1 4.46793 8.04867 57.115
1102 1 27.0204 21.2765 77.5157
708 1 15.7704 8.28431 57.2853
710 1 21.25 8.00168 55.5259
712 1 28.4495 8.06799 54.7965
913 1 2.41038 5.90902 70.8614
718 1 5.2492 12.5096 57.5178
720 1 9.32728 12.5909 57.7367
721 1 11.8625 10.3382 55.7455
722 1 15.4676 12.7742 56.7099
724 1 21.3526 12.7154 55.8382
795 1 25.0497 10.4565 57.2055
797 1 31.8334 9.81813 56.4028
733 1 7.73844 14.9218 54.0221
732 1 5.27131 17.237 57.3355
735 1 11.5799 15.0209 55.2024
736 1 15.1438 17.0197 56.8738
738 1 21.3767 16.4235 55.5831
809 1 25.0881 14.2478 57.8445
811 1 31.4961 14.4933 56.5914
921 1 27.5139 5.96192 65.8491
749 1 11.4625 18.9811 55.6058
823 1 25.3717 19.1702 57.4999
740 1 27.8232 16.7996 54.848
825 1 30.9379 19.4206 56.365
682 1 20.6585 21.5449 51.3294
746 1 4.65925 21.7572 57.2857
748 1 9.21144 21.2651 57.9393
763 1 11.7112 23.6684 54.846
750 1 15.1755 21.6816 56.8474
752 1 21.8697 20.7336 56.0222
837 1 24.3523 23.5357 57.848
754 1 27.829 21.1467 54.7297
839 1 31.3115 24.2253 55.9351
760 1 5.36702 25.6561 57.6529
1072 1 20.4765 12.4118 79.1278
2383 1 3.62212 28.2115 75.7505
764 1 15.1983 25.8249 57.1075
766 1 21.1642 25.5731 55.5342
2107 1 12.0867 28.1287 55.1587
1116 1 27.2627 25.7344 78.1847
2183 1 31.0201 27.9376 56.5485
706 1 9.19557 7.95321 57.4546
778 1 16.3841 8.51835 61.2749
780 1 22.3639 8.13967 59.6311
782 1 28.2866 7.36236 58.4408
787 1 2.1335 9.97389 60.1431
789 1 6.55045 10.0368 60.8361
791 1 12.5506 10.6322 59.6184
792 1 16.5673 12.3139 61.226
793 1 19.2868 10.213 57.9827
794 1 22.4848 12.7431 60.3877
796 1 28.7857 11.9148 59.1131
867 1 32.5126 10.6281 60.3453
801 1 1.79574 14.7788 59.8735
803 1 6.54388 14.8207 60.8318
734 1 9.21464 16.2465 58.4154
805 1 12.8005 14.4522 59.9873
807 1 18.7033 14.8394 59.0024
810 1 29.004 16.8905 58.9012
881 1 32.3827 15.0034 60.6386
815 1 2.22747 19.2548 60.3398
817 1 6.92818 19.1524 60.8422
819 1 12.6999 19.2704 59.7738
821 1 18.9238 19.3803 58.2572
808 1 22.6939 17.2252 60.0349
893 1 26.6375 19.3868 61.7309
895 1 32.7178 19.5027 60.3789
829 1 2.44129 23.6056 60.2241
831 1 6.99812 23.7973 60.9014
833 1 13.1791 23.9925 59.62
820 1 16.2345 21.5009 61.2256
835 1 19.0229 23.7352 58.3715
822 1 22.3282 21.2958 60.6877
824 1 28.6462 21.4542 59.1001
909 1 32.7064 24.1428 60.4348
758 1 0.974914 26.3256 56.9651
762 1 9.6961 25.4487 57.9328
2177 1 13.1789 27.8587 59.7649
836 1 22.7145 25.9515 60.859
2179 1 18.9173 27.6595 58.6408
838 1 28.4294 26.0689 59.3276
774 1 4.232 7.5555 63.6211
776 1 10.2022 7.57398 62.2944
863 1 20.4258 10.2015 62.4973
850 1 23.7008 7.56636 64.1347
852 1 29.8533 7.978 63.1229
788 1 3.75437 11.9352 63.1059
790 1 10.4069 12.3757 62.3912
861 1 14.016 10.5294 63.6121
865 1 26.2879 10.1419 61.6573
864 1 23.5977 12.3218 64.8763
866 1 29.9121 12.2207 63.5739
802 1 3.79814 17.402 63.512
804 1 10.7961 16.8986 62.4825
875 1 13.9889 15.1289 64.0713
806 1 16.2482 17.1376 61.1764
877 1 20.271 14.7508 62.8277
879 1 26.2188 14.7512 61.5877
880 1 29.6353 16.9813 63.5187
889 1 14.4215 18.9896 64.0745
891 1 19.8544 19.2667 63.1091
878 1 22.9258 16.7526 64.2803
1033 1 33.4244 19.3906 64.7459
1111 1 10.9773 23.8172 78.7784
816 1 4.46471 21.9266 63.4387
818 1 10.7471 21.3357 62.3123
903 1 13.8747 24.1269 64.3025
905 1 19.6005 24.1899 63.1703
907 1 25.9597 24.0111 62.0972
892 1 23.1886 21.8511 65.1532
894 1 29.7542 22.2418 63.4958
830 1 3.9913 25.9193 64.0145
832 1 10.3027 26.0179 62.5407
1105 1 32.9996 19.0822 75.6878
834 1 16.5914 26.5748 61.3503
843 1 1.75325 5.97585 66.118
1091 1 33.3568 14.6862 75.8786
908 1 29.5232 26.6641 63.7702
1024 1 1.02627 21.7293 78.4417
844 1 5.32837 8.18811 68.1061
846 1 11.3466 7.98705 66.9184
848 1 17.4139 7.63994 65.0283
922 1 30.7189 8.12072 67.8108
857 1 1.21395 9.92083 66.4733
858 1 5.56095 12.8692 67.4776
859 1 7.69506 10.1125 65.3489
860 1 11.5723 12.5403 67.079
931 1 15.0441 9.99347 68.2306
862 1 17.8008 12.5803 65.4406
933 1 21.3592 10.2618 67.2345
935 1 27.0576 10.3522 66.2482
937 1 33.8176 10.1729 64.9324
871 1 2.01719 14.8285 66.1481
872 1 5.44411 17.1706 68.0259
873 1 7.34399 14.6672 64.7613
874 1 11.1426 16.6575 66.632
876 1 17.6638 17.2502 65.6993
947 1 20.6649 14.1969 67.477
949 1 26.9959 15.0768 66.0264
951 1 33.4946 14.8398 65.1125
936 1 31.0921 12.3046 67.8385
950 1 30.8726 17.0341 67.7761
885 1 2.02047 19.448 66.6355
887 1 7.80851 19.2708 65.4879
959 1 15.7212 19.4431 68.5282
961 1 21.1835 19.4443 67.5592
963 1 26.6224 19.5441 65.7724
1035 1 30.7459 21.7985 67.7084
899 1 2.21499 24.1589 66.8115
886 1 5.58087 22.0982 68.2323
901 1 8.09849 23.8692 65.4121
888 1 11.5793 21.4809 67.0232
890 1 17.5067 21.8831 65.9965
975 1 21.0594 24.1692 67.5225
977 1 26.9378 24.1932 66.7166
964 1 33.3015 24.0617 64.8134
900 1 5.47156 25.9948 68.4398
902 1 11.9094 26.1247 67.0347
904 1 17.4425 26.633 66.0367
1118 1 31.3714 25.5296 78.7258
906 1 24.1898 26.3349 64.9192
847 1 13.8117 5.95027 64.2585
978 1 30.8412 26.2991 68.1085
2253 1 31.6722 27.7677 60.5222
2457 1 17.3197 28.064 77.6703
916 1 12.5112 7.63418 71.5879
918 1 18.4815 7.51483 69.8874
987 1 16.408 5.89345 73.6661
920 1 24.8477 8.068 69.0032
1042 1 13.5401 25.959 75.6797
927 1 2.67085 10.0095 70.6487
929 1 8.90236 10.2955 69.5714
930 1 12.5623 12.3174 71.5918
932 1 18.5433 12.1894 69.9897
1003 1 22.1566 9.89439 71.7361
934 1 24.5007 12.8142 69.4615
1005 1 28.6812 10.1097 70.8461
2245 1 8.34446 28.061 65.5821
941 1 2.79578 14.7193 70.7829
942 1 6.13615 16.8921 72.2395
943 1 9.15359 14.9305 69.3998
945 1 15.1993 14.8827 68.3984
944 1 11.9183 17.8702 70.1488
948 1 24.1041 17.0923 68.8934
1019 1 27.8051 14.5192 70.3447
955 1 2.46886 19.3688 70.7612
957 1 8.18236 19.5588 69.8845
946 1 18.9995 16.6508 70.289
1031 1 21.7981 19.586 72.2664
1020 1 27.809 19.2595 70.4411
969 1 2.8883 23.8671 71.4312
971 1 8.59366 24.0936 69.9552
973 1 15.3521 23.9132 68.8388
958 1 12.3876 21.5484 70.805
960 1 18.5034 21.7906 69.9755
962 1 24.7682 21.785 69.5704
1047 1 28.3988 23.696 70.9726
1040 1 7.34361 26.3683 76.9462
1038 1 1.67921 25.7142 77.8908
972 1 12.4734 26.2164 71.2281
974 1 18.635 26.5554 70.5521
976 1 24.783 26.4168 69.5065
781 1 25.0232 5.66881 56.7846
2181 1 24.7164 27.5985 57.7117
914 1 6.39607 7.83933 72.7426
728 1 32.9504 12.4603 53.8389
988 1 19.5174 7.75334 74.5317
990 1 25.8147 7.64829 73.4202
1104 1 31.3019 21.5705 78.3476
992 1 32.396 7.631 72.142
997 1 3.93456 10.0878 75.238
928 1 6.27919 12.3295 71.712
999 1 9.81251 10.4652 73.9218
1001 1 16.3059 9.87242 73.2904
1002 1 19.9131 12.4444 74.3872
1004 1 25.9499 12.1111 73.3723
1075 1 29.4648 9.65091 75.3078
1006 1 32.1373 12.1831 72.5829
1011 1 3.97318 13.8547 75.463
1013 1 9.80416 14.3561 73.7619
1015 1 16.5849 13.8534 72.9331
1017 1 22.1793 14.3842 72.085
1016 1 19.0627 17.4833 74.0429
1018 1 26.0582 16.8224 73.1035
1089 1 29.5498 14.4871 74.8446
1022 1 31.468 16.9666 71.8724
1025 1 3.69537 19.5342 75.2178
1027 1 9.576 18.8951 74.2071
1029 1 16.2488 19.8153 72.5839
1103 1 29.1013 19.1153 74.97
2461 1 29.3083 28.0984 75.2593
956 1 6.09292 21.5482 72.9357
1039 1 3.71854 23.8788 75.1689
1041 1 9.9463 23.5882 74.1904
1043 1 16.2173 23.5734 72.782
1045 1 22.4871 24.1561 71.5899
1030 1 19.9747 21.5489 74.8645
1032 1 25.5849 22.212 73.4571
1117 1 29.759 23.0825 75.1074
1034 1 32.2045 21.5613 72.4004
1113 1 16.738 23.6879 77.3336
2113 1 30.1039 27.7432 51.546
970 1 6.78593 26.2334 72.8913
2173 1 2.90559 28.1497 60.5382
1115 1 23.6822 24.1369 76.4
1044 1 19.7477 26.2475 74.5759
1046 1 26.1169 26.9382 73.3253
1048 1 31.6867 26.2905 72.7016
982 1 0.83685 8.28414 78.1745
984 1 7.36981 8.21231 77.1281
986 1 13.9007 8.8111 75.7713
1060 1 26.9533 7.88245 77.8301
1062 1 31.5515 8.18979 78.3386
1028 1 13.3626 21.3033 75.8134
998 1 7.55324 12.2582 77.4226
1069 1 10.6028 10.1491 78.4702
1000 1 13.3941 12.7848 75.2724
1071 1 18.0065 10.1077 77.4387
1073 1 23.0659 9.38503 75.8995
1074 1 26.7768 12.5116 78.0144
1077 1 33.9897 10.104 75.8362
1076 1 31.1983 12.5733 78.7289
1010 1 0.834809 16.9922 78.111
1012 1 7.10639 16.8921 76.7561
1083 1 10.5332 14.4914 78.0804
1014 1 13.7699 16.6568 75.0589
1085 1 17.22 14.6506 77.1307
1087 1 23.2999 14.2964 75.8301
1088 1 26.7491 16.9311 77.714
1026 1 7.89213 21.6414 77.4053
1097 1 10.6615 19.1366 78.7187
1099 1 17.3041 19.0336 77.0261
1101 1 23.7602 18.9782 76.4246
2109 1 17.7972 28.2829 54.3142
2103 1 3.12577 28.0076 54.0484
775 1 6.29395 6.07389 60.8413
2387 1 16.1777 28.2774 73.7221
2323 1 33.6007 28.2807 65.0046
2247 1 13.5456 28.0105 64.3528
2249 1 20.171 28.3511 63.1418
690 1 5.18361 25.8722 51.1645
1205 1 0.920048 10.3404 90.8051
1054 1 8.28011 7.78429 81.4865
1056 1 14.5773 7.78584 79.8848
1086 1 20.7005 16.8081 79.435
2731 1 3.40564 28.5353 99.6328
12074 1 0.512397 16.4492 101.364
2597 1 19.7914 28.4311 86.3528