ITEM: TIMESTEP
289000
ITEM: NUMBER OF ATOMS
16000
ITEM: BOX BOUNDS pp pp pp
3.5300284222761746e-01 1.0184699715777521e+02
5.8349746119197690e+00 9.6365025388076234e+01
-5.2523696543638536e+00 1.0745236965436217e+02
ITEM: ATOMS id type x y z
6 1 15.2225 8.23608 -4.46564
8 1 19.6814 7.88429 -4.12986
10 1 24.0801 8.15679 -3.19981
12 1 28.9009 8.17027 -2.8609
14 1 33.0205 8.22214 -2.28299
85 1 3.89414 10.5419 -2.84267
87 1 8.31731 10.7621 -2.24916
293 1 28.64 5.93047 19.2278
20 1 14.7631 11.8499 -4.04762
89 1 12.2271 10.3599 -1.52141
22 1 19.3881 12.6409 -3.32645
24 1 24.1584 12.8699 -2.87956
26 1 28.9149 12.7469 -3.07115
28 1 32.7293 12.7488 -2.66285
99 1 3.60957 15.4063 -2.54834
101 1 7.98382 15.1904 -2.50465
36 1 19.3503 17.2061 -3.95638
38 1 24.7355 16.9481 -3.50352
40 1 28.7389 16.9815 -2.85927
113 1 3.0913 20.0013 -2.99604
115 1 8.16027 19.9911 -2.3778
34 1 14.7881 16.4918 -4.09942
42 1 33.2702 16.8442 -2.31639
127 1 2.73617 24.366 -2.84517
129 1 7.78679 24.1165 -2.55079
131 1 12.5624 24.2153 -1.92295
48 1 14.443 21.9372 -4.59902
50 1 18.8151 21.8724 -4.00559
52 1 23.9492 21.6215 -3.42144
54 1 28.5294 21.6891 -2.59567
56 1 33.4704 21.6249 -2.51695
60 1 10.2878 25.8633 -5.2444
62 1 14.5504 26.5279 -4.3513
64 1 19.9392 26.2831 -3.47589
66 1 24.0405 26.1669 -3.36963
68 1 28.7444 26.4334 -3.1278
10878 1 0.906243 8.70776 0.32142
72 1 5.3935 8.42753 0.619857
74 1 9.73493 8.06536 1.18931
76 1 13.6556 8.001 1.69485
10956 1 0.439963 12.8797 6.25614
10891 1 0.841831 12.6665 -0.659314
86 1 5.47544 12.9511 0.628628
88 1 9.30731 12.8174 0.955769
90 1 14.2448 12.3764 2.05236
91 1 16.8319 9.94034 -1.20395
93 1 21.2715 9.9019 -0.519608
95 1 26.7077 10.5245 0.231231
97 1 30.6381 10.451 0.717
100 1 5.19589 17.5504 0.329757
102 1 9.87739 17.4415 1.0928
103 1 12.0024 14.6522 -1.78384
104 1 14.2553 17.1616 1.39978
105 1 16.5827 14.3822 -0.595951
107 1 21.2815 14.9208 -0.874247
109 1 26.2812 15.0522 0.347092
111 1 30.4396 15.1038 0.254614
294 1 30.7323 8.16526 22.8018
117 1 12.5552 19.454 -2.12037
119 1 17.1801 19.6768 -0.493793
121 1 21.7383 19.7187 -0.781166
123 1 26.1903 19.0634 0.48924
125 1 30.786 19.5656 0.409205
350 1 30.5858 26.1114 22.7293
114 1 5.91136 22.3793 0.110398
116 1 9.62948 21.8492 0.918969
118 1 14.4411 21.8682 1.30744
133 1 16.5933 23.8604 -1.12536
135 1 20.9617 23.7722 -0.581414
137 1 26.4479 23.8689 -0.137247
139 1 31.0176 24.3003 0.424376
10930 1 0.698036 26.615 0.0338994
128 1 5.39198 26.9232 0.253674
130 1 9.4931 25.6497 0.350623
5835 1 34.0408 19.3001 13.4976
132 1 14.5375 26.4509 1.68213
211 1 1.79511 5.8693 9.13073
5796 1 33.5821 6.35557 13.8991
70 1 33.0351 26.394 -2.45813
79 1 21.6989 5.89491 -0.346769
18 1 10.1314 12.3544 -5.23012
78 1 19.1458 8.05727 2.359
80 1 23.852 8.28033 3.00581
82 1 27.9611 7.72844 3.6596
84 1 32.5897 7.46909 4.2835
155 1 2.4449 10.77 3.19558
157 1 7.62478 10.156 4.19567
159 1 11.7775 10.3992 4.88033
161 1 16.6197 9.9106 4.8712
92 1 18.7694 12.6782 1.86597
94 1 23.2439 12.7272 1.54195
96 1 28.4198 12.9122 3.92592
98 1 33.0104 12.3539 3.73038
169 1 2.9816 14.8168 3.02043
171 1 7.5747 15.3842 3.87666
173 1 12.3216 15.0202 4.14085
106 1 19.8472 17.4437 1.82201
175 1 16.6657 15.3051 5.0039
110 1 28.167 17.5787 3.79456
112 1 32.3637 17.094 3.75057
183 1 2.81055 19.5005 3.38686
185 1 7.82652 19.8944 3.77114
187 1 12.0807 19.796 4.55811
189 1 16.7399 19.7907 4.57633
108 1 23.5726 17.0924 2.64625
197 1 2.58937 24.0706 2.69465
199 1 7.48922 24.0392 3.37446
201 1 11.8357 24.4116 4.2249
120 1 19.1121 21.7221 2.42794
122 1 23.6604 21.8594 2.93969
124 1 28.0468 22.1207 3.40319
126 1 32.3434 21.8011 4.04752
346 1 21.7772 26.1133 21.0989
134 1 18.7658 26.4531 2.22832
136 1 23.2734 26.4958 2.64096
138 1 27.7887 26.7939 3.20789
140 1 32.683 26.4975 4.15498
334 1 25.6425 21.3953 21.8532
142 1 4.69124 8.76317 6.80239
144 1 8.84885 8.12942 8.11661
146 1 14.037 7.94371 8.34008
148 1 17.9567 8.29103 8.87996
145 1 11.2537 5.89658 4.81427
1751 1 1.09477 28.5007 22.051
1479 1 21.8109 28.3253 -0.37635
156 1 5.08319 13.1165 6.13551
158 1 9.56267 13.1297 7.51086
160 1 14.1786 12.5353 7.75658
163 1 21.0736 10.722 5.26338
165 1 25.6406 10.9567 6.27872
167 1 29.5978 9.95673 6.26067
170 1 4.52315 17.778 6.30879
162 1 18.5281 12.0572 7.74021
177 1 21.3039 14.7294 5.28713
179 1 25.9253 15.0955 6.14502
181 1 30.5964 15.0421 6.82081
172 1 9.57578 17.0484 7.28945
174 1 14.2807 17.2705 7.60747
176 1 18.4145 16.8138 8.0974
191 1 20.8996 19.2237 5.84324
193 1 25.4234 19.6616 6.21652
195 1 30.0927 19.7419 6.86042
10904 1 0.631576 17.2191 -0.172027
1617 1 15.6346 28.1451 11.6312
184 1 4.58049 21.9008 6.48275
186 1 9.25059 21.9048 7.09757
188 1 13.8265 21.8391 7.61088
203 1 16.2229 23.8713 5.20954
190 1 18.5339 21.3994 8.3424
205 1 20.8336 23.9487 5.50114
207 1 25.4018 23.9807 6.83025
209 1 30.2066 24.8138 6.62737
348 1 26.377 26.0171 21.9689
198 1 4.59069 26.0114 6.51862
200 1 8.84632 26.2634 7.1201
202 1 13.7807 26.5002 7.8739
344 1 17.0112 26.4514 20.8373
1615 1 11.1123 28.2833 10.5211
217 1 15.8694 5.92174 11.9625
150 1 22.3004 7.98162 8.87297
152 1 26.98 8.14843 9.45733
154 1 31.6123 8.58783 10.3562
225 1 1.90822 10.4149 9.37181
227 1 6.63499 10.7627 9.70367
229 1 11.1846 10.5616 10.3156
231 1 15.6834 10.1516 11.5751
233 1 19.9567 10.4163 11.8313
164 1 23.0926 12.3879 8.8675
166 1 27.7936 12.8606 9.72611
168 1 32.2838 12.3301 10.2083
239 1 2.59637 15.0076 9.57684
241 1 7.0175 14.9321 10.8762
243 1 11.5553 15.2668 10.4773
245 1 16.2097 14.5087 10.5821
178 1 23.0622 17.0587 9.32299
247 1 20.0663 15.15 11.4103
253 1 2.05552 19.5386 9.81613
255 1 6.68144 19.6463 10.0087
257 1 10.7943 19.8681 10.096
259 1 15.6486 19.0845 10.8938
263 1 24.8505 19.4129 12.51
180 1 27.5934 17.3877 9.77501
182 1 32.2644 16.9961 10.1072
267 1 2.45348 24.3281 9.95059
269 1 6.55873 24.1588 10.1763
271 1 11.3187 24.3813 10.4207
273 1 16.0786 23.9118 11.1493
192 1 22.9338 21.7672 9.04439
194 1 27.357 22.1232 9.56945
196 1 31.7494 21.7923 10.1192
342 1 12.4093 26.0206 20.2876
204 1 18.1292 26.0592 8.76273
10917 1 0.409205 21.9334 0.0900854
206 1 22.9186 25.9526 9.05542
143 1 7.47758 6.21739 4.38446
208 1 27.5078 26.0257 9.45469
210 1 31.7558 26.4304 10.6824
212 1 3.56304 8.90359 12.6948
214 1 8.02087 8.34396 13.5322
216 1 12.5173 8.7694 14.5633
218 1 17.2988 8.56401 15.1232
220 1 21.7491 8.26418 15.5843
1543 1 7.72897 28.4547 4.01338
71 1 3.5081 6.59696 -2.94819
77 1 17.0884 6.14424 -0.598035
295 1 1.30451 10.7816 15.4308
226 1 4.42597 12.8303 13.1393
297 1 5.84205 9.91627 16.3682
228 1 8.29091 12.549 13.5565
230 1 12.4406 12.4145 13.8547
232 1 17.7255 12.9137 14.3404
235 1 24.4187 10.1208 12.6287
237 1 28.847 10.3028 12.8074
4 1 10.9629 8.26146 -4.73981
309 1 1.65993 15.3985 15.4953
240 1 4.09336 17.331 13.2804
242 1 8.73057 17.2337 13.5811
234 1 22.5078 12.8526 14.8676
249 1 24.7336 14.7027 12.2952
251 1 29.4035 14.6058 12.8247
409 1 5.7649 24.4492 22.3514
323 1 2.06557 19.5897 15.7363
244 1 13.3183 17.0228 14.4259
246 1 17.4218 16.7964 14.8479
261 1 20.0842 19.2863 11.7655
248 1 21.9963 17.246 15.2509
265 1 29.6035 19.2693 13.1582
1623 1 29.4966 27.7953 13.4207
337 1 2.09621 24.2819 15.8325
254 1 4.42087 21.8507 12.4743
256 1 8.92525 21.7063 13.4031
258 1 13.0836 21.6297 13.9543
260 1 17.8282 21.182 14.3654
275 1 20.6717 23.8189 12.1928
277 1 24.9598 24.1012 12.7633
279 1 29.3819 23.1536 13.1893
264 1 27.0092 21.2499 16.2583
5848 1 33.7755 23.8634 13.7317
268 1 4.42147 26.7257 13.3636
270 1 9.21834 26.3458 13.2518
272 1 13.4693 26.3962 14.1875
274 1 17.9647 25.9022 15.057
276 1 22.0042 26.481 15.2792
7161 1 33.401 28.1953 19.9033
282 1 3.43689 8.23111 18.9362
287 1 14.6183 6.17911 18.0404
73 1 8.00815 5.94921 -2.2139
5913 1 33.6904 23.7116 19.9559
289 1 19.2972 5.88016 18.5409
222 1 26.3409 8.30134 15.8435
5809 1 34.0392 10.9818 13.6599
224 1 30.608 7.89855 16.6193
296 1 3.60567 12.9104 19.1655
299 1 10.3413 10.1508 17.2339
301 1 14.9412 10.825 17.0317
303 1 19.415 10.593 17.9171
305 1 23.7023 10.3683 18.8398
236 1 26.7785 12.8104 16.2058
238 1 30.7757 12.6874 16.2986
311 1 6.15631 14.7109 16.6911
313 1 10.6675 14.8264 17.1142
315 1 15.5218 15.3199 18.146
317 1 20.1053 14.845 18.1141
319 1 24.6002 14.5389 19.1079
325 1 6.01328 19.5208 16.3587
327 1 10.6755 19.5992 17.4284
329 1 15.0051 19.6081 17.9084
331 1 19.1938 18.8163 18.1886
250 1 26.6629 17.6081 16.2621
252 1 31.3037 16.891 16.384
339 1 6.53035 24.4 16.5566
341 1 11.1969 24.237 16.7337
343 1 15.2573 24.0343 17.2008
262 1 22.3238 21.6611 15.2894
345 1 19.4707 23.6618 17.9041
347 1 23.886 23.6819 18.6965
266 1 32.0213 20.8712 16.5469
338 1 3.83317 26.4422 19.6178
340 1 8.54978 26.462 20.1511
1685 1 10.3019 28.2296 17.4035
215 1 10.5561 6.40126 11.2521
278 1 26.6723 25.7496 16.0024
280 1 31.3794 25.6441 16.523
349 1 28.8716 23.7806 19.6167
284 1 7.21997 8.36016 20.5055
286 1 12.8486 8.72567 20.5792
288 1 16.7814 8.28269 21.3957
290 1 21.413 8.2936 21.2569
292 1 25.9754 8.00413 22.0916
213 1 6.21487 6.00889 9.81581
365 1 1.00946 10.1866 22.1932
285 1 9.9822 6.32432 17.4308
298 1 8.20534 12.4734 20.2686
300 1 12.8081 12.6802 20.6124
302 1 17.4743 12.8706 21.425
304 1 21.3827 12.223 21.6349
306 1 25.8156 12.6831 22.3753
307 1 28.386 10.6635 19.3187
5874 1 32.9445 10.118 20.1468
379 1 1.02002 14.9574 21.3575
312 1 7.79763 17.3284 19.9399
314 1 12.4307 17.3362 20.3587
316 1 17.0976 16.9365 21.1573
320 1 26.1352 17.4531 22.1956
321 1 28.9701 14.5524 19.8601
5887 1 33.1832 14.727 19.7986
310 1 3.6877 17.6227 19.5604
393 1 1.29869 19.5941 22.1802
318 1 21.6483 17.3144 21.5233
333 1 23.5953 19.3054 18.384
335 1 29.1673 19.1084 19.7698
5900 1 33.1325 19.4426 19.9142
407 1 1.56448 24.2759 22.2299
141 1 2.8011 6.84614 3.3175
324 1 3.40991 22.302 18.9554
326 1 7.67326 21.9306 19.9681
328 1 12.3651 22.0465 20.4566
330 1 17.0546 21.7213 21.0839
332 1 20.95 21.4284 21.6839
1541 1 3.41047 28.015 3.21308
1689 1 19.4164 28.1898 17.9334
46 1 10.4995 21.5328 -5.14654
1475 1 12.0433 28.4247 -1.63595
1683 1 6.48525 28.4112 17.1123
221 1 24.3039 6.02175 12.4855
147 1 15.9842 5.94582 5.09535
281 1 1.4774 6.2743 16.083
1691 1 24.6052 28.368 18.3647
1477 1 16.9719 28.323 -0.973395
1619 1 19.7596 28.3409 11.5533
352 1 2.95031 8.27334 25.8199
5926 1 32.7302 6.58909 26.5356
477 1 0.609211 24.2262 28.3463
519 1 0.460206 14.951 35.0799
463 1 0.767714 19.1922 28.1079
355 1 9.5294 6.32021 23.3029
366 1 3.0429 13.1434 25.5175
369 1 10.0217 10.452 23.4182
371 1 15.176 10.9763 23.9953
373 1 18.8553 10.1399 24.8576
375 1 23.9693 10.0077 24.8044
377 1 28.0558 10.4241 25.64
497 1 13.6067 6.05063 36.78
380 1 2.94119 17.072 25.641
637 1 11.3032 6.13655 48.0899
382 1 7.61422 17.126 26.5888
632 1 0.476088 8.15699 51.0732
385 1 14.3589 15.5781 23.6836
387 1 18.947 15.0316 24.7921
389 1 23.5971 14.8031 24.9527
391 1 28.3168 15.2415 25.7393
688 1 1.61857 26.3803 50.0899
397 1 9.84334 19.6887 23.2317
399 1 14.6539 19.6285 23.907
401 1 19.118 19.7123 24.5697
403 1 23.727 18.7945 25.0873
405 1 28.5676 18.9698 25.8255
322 1 30.8825 17.2118 23.0633
5965 1 33.2173 20.2228 25.8697
394 1 3.57073 21.7267 25.7393
411 1 10.0268 23.6141 23.4996
396 1 8.17133 21.5421 26.5807
413 1 14.2781 24.4014 23.7919
415 1 18.9174 23.9015 23.8812
417 1 23.5255 23.5099 24.7704
383 1 9.98739 15.1156 23.2256
336 1 30.6763 21.7816 23.1319
408 1 3.09365 26.3013 24.9515
410 1 7.70259 26.4122 26.3561
1831 1 23.5928 27.8773 31.1403
641 1 23.1913 5.96355 48.1117
533 1 0.346882 19.0323 35.071
354 1 7.51919 7.8007 26.403
356 1 12.1445 8.13349 26.7882
358 1 16.6343 7.84948 27.364
360 1 21.2735 8.16838 28.0854
362 1 25.7628 8.50321 28.8915
364 1 30.4065 8.44412 29.3307
435 1 0.396356 10.4504 28.3882
368 1 7.49505 12.4972 25.7918
437 1 4.98621 10.3652 28.8025
439 1 9.32367 10.4828 29.6659
370 1 12.2295 12.4821 26.3883
372 1 16.8193 12.6421 27.5676
374 1 21.5824 12.7253 27.5337
376 1 25.4953 13.2231 27.967
5939 1 32.7294 10.3931 26.5876
449 1 0.797585 14.7878 28.4417
451 1 5.44732 15.0862 29.0323
388 1 21.1922 17.1195 28.4875
5952 1 32.7511 14.4993 26.3268
363 1 28.1715 5.97395 25.9574
465 1 5.01462 19.6618 29.2055
384 1 12.2032 17.2022 26.7426
386 1 16.6291 17.3609 27.4435
390 1 25.1266 16.9607 28.1781
392 1 30.2503 16.7279 29.513
479 1 5.18866 24.3604 28.734
481 1 8.91468 24.2243 29.342
398 1 12.2095 21.4692 26.7248
400 1 16.2935 22.0098 27.3428
402 1 21.0401 21.6246 27.5909
404 1 25.4551 21.6804 28.5263
419 1 28.1028 23.3838 25.4503
406 1 30.1644 21.3442 28.9709
5978 1 32.7987 24.3966 26.3164
660 1 0.808055 16.6142 50.5001
1755 1 9.89534 28.3856 23.3109
412 1 12.3101 26.1514 26.7434
414 1 17.0424 26.5634 27.1427
416 1 21.5033 25.9231 27.3719
418 1 26.0464 25.5979 28.1457
420 1 30.12 26.0842 28.8819
395 1 5.98355 19.3662 23.4806
422 1 1.70107 8.06194 30.7601
424 1 7.25426 8.62427 32.3346
626 1 19.5962 25.8053 46.57
426 1 11.8317 8.01576 32.9738
1971 1 22.1595 28.4898 43.7451
428 1 16.0477 8.14839 33.5769
690 1 5.456 26.4383 50.9104
367 1 5.42961 10.9642 23.0342
436 1 2.74768 12.337 31.781
438 1 6.97024 13.4991 32.588
441 1 14.0686 10.4288 30.0571
440 1 11.1058 12.5917 33.2448
443 1 18.7437 10.7034 30.7189
445 1 23.3782 11.2351 31.7571
378 1 29.8251 12.5473 29.408
447 1 27.9309 10.5434 32.1901
6004 1 31.9521 9.99025 32.8059
452 1 7.58719 17.9289 32.6466
453 1 9.992 14.6198 29.2013
455 1 14.0634 14.4425 30.1799
457 1 18.331 14.7766 31.1949
459 1 22.5056 14.7926 31.2775
461 1 27.4095 14.907 31.7384
6017 1 32.623 14.7137 32.3499
450 1 2.24519 17.0805 32.1342
467 1 9.63965 19.5635 29.9919
469 1 14.3989 19.4894 30.1371
471 1 18.0876 19.4241 30.5143
473 1 22.8513 19.401 31.1315
475 1 28.1275 19.451 31.7667
6030 1 32.8116 19.5498 32.1228
464 1 2.14678 21.7117 32.1631
466 1 7.35671 21.8663 32.5596
483 1 14.6115 24.116 30.1618
485 1 18.5567 23.8116 30.7084
487 1 22.9745 23.9302 31.3261
489 1 27.5645 23.8828 32.1089
6043 1 32.2633 24.011 32.1508
478 1 2.10334 26.1648 31.845
480 1 7.2033 26.7624 32.2563
482 1 11.3574 26.0014 32.7912
686 1 32.7256 21.309 48.7519
423 1 5.14407 6.02198 28.8608
648 1 4.66692 12.59 50.6575
697 1 23.3178 23.5938 48.4525
634 1 5.20764 7.87773 50.9683
430 1 20.8493 8.07421 34.268
432 1 25.048 8.08098 34.8124
434 1 29.8001 8.40213 35.6378
507 1 4.87635 10.0418 35.1628
509 1 8.75568 10.6287 35.7156
511 1 13.3964 10.4571 36.8203
442 1 15.8384 12.9561 33.7341
444 1 20.3651 12.8317 34.5713
446 1 24.7778 12.746 34.9254
448 1 29.3407 12.2738 35.9753
521 1 4.32466 14.6517 35.5746
523 1 9.04343 15.1409 36.3395
454 1 12.015 17.0039 33.141
525 1 13.7593 15.1952 36.0346
456 1 16.0218 17.6029 33.3183
458 1 19.9083 17.0406 34.0363
535 1 4.55119 19.4272 35.2758
537 1 9.46497 19.841 36.1548
539 1 13.6696 19.4133 35.9087
460 1 25.2589 16.8121 34.2567
462 1 29.5498 17.008 35.2092
549 1 4.67172 24.0324 35.211
551 1 9.14607 23.9989 35.3119
468 1 11.4634 21.4642 33.3483
553 1 14.2029 24.1719 36.1973
470 1 16.2065 22.2745 33.4605
555 1 18.8282 24.1365 37.1167
472 1 20.904 21.3568 33.8121
474 1 25.1973 21.1711 34.6102
476 1 29.7241 21.8853 35.6352
6108 1 33.4072 24.2591 36.5209
484 1 16.4813 26.2674 34.0759
486 1 21.0859 26.159 33.8176
488 1 25.287 25.7704 35.1856
490 1 29.873 26.0447 35.7521
492 1 2.33514 7.77116 38.3143
494 1 6.54145 8.12458 39.0547
496 1 11.204 8.34948 39.2683
498 1 15.9012 8.39415 40.0189
504 1 30.8304 7.85918 40.1789
646 1 0.971775 12.8927 50.5812
506 1 2.33389 12.5301 38.2459
508 1 6.06869 12.8502 38.7944
510 1 10.672 13.0415 39.3354
513 1 17.9648 10.4419 37.1212
515 1 22.6388 10.5757 37.9699
514 1 20.1563 12.8388 40.5998
517 1 27.3399 9.73078 38.5406
6069 1 32.9426 10.9591 37.8862
518 1 30.6133 12.9678 40.2428
520 1 2.32151 16.9582 38.039
524 1 11.8739 17.3581 39.1883
527 1 18.0767 15.2171 36.9918
529 1 22.5461 15.6769 37.7954
531 1 27.2753 15.1577 37.889
6082 1 33.0324 14.8875 37.607
522 1 6.95979 17.5864 38.7586
526 1 16.3058 17.2445 40.707
541 1 18.404 19.7278 37.6527
528 1 20.193 17.2376 40.4984
543 1 23.0577 19.7205 37.3032
530 1 24.7562 17.3966 40.9969
545 1 27.4944 19.5786 38.1652
532 1 30.7442 17.3455 39.8017
6095 1 33.0135 19.6192 36.4846
534 1 2.09502 21.7483 38.3523
536 1 6.00199 21.989 38.3326
538 1 11.5485 22.14 38.9761
540 1 15.5976 22.0292 39.2538
557 1 22.5563 23.9418 37.3698
559 1 27.5378 24.232 38.6433
546 1 30.6475 21.2847 40.3712
548 1 1.95112 26.0057 38.1206
550 1 6.36171 26.6825 38.5838
552 1 10.523 25.9395 38.7246
554 1 15.5889 26.4741 39.6055
684 1 27.1605 21.962 50.7239
560 1 31.2622 26.4332 40.5689
2041 1 22.8353 27.6667 48.0134
357 1 14.4995 6.20427 24.1185
7226 1 33.0478 28.4122 26.2207
500 1 20.3044 8.2287 40.5784
502 1 24.3519 8.27661 41.3037
577 1 3.69333 9.76365 41.1367
579 1 7.91679 10.2985 42.124
581 1 12.96 10.7498 42.4666
512 1 15.9362 12.9849 39.6347
583 1 17.3071 10.4072 43.2903
516 1 24.7865 12.7208 40.6798
587 1 28.0589 10.3806 42.6872
590 1 1.51142 17.2886 44.4872
591 1 4.27818 15.1382 41.6294
593 1 8.90725 15.0151 42.1609
595 1 13.1 15.4343 42.6275
597 1 17.7204 15.0091 43.5424
601 1 28.0695 15.1069 42.4717
605 1 3.89095 19.9438 41.2863
607 1 8.6638 19.6988 41.7373
609 1 13.2917 20.0018 42.9384
611 1 18.0875 19.519 43.5597
615 1 28.2693 19.59 42.8597
700 1 33.4291 25.8615 48.7119
619 1 3.71432 24.6808 41.4393
621 1 8.46129 24.1506 41.6548
623 1 12.9762 24.3741 42.717
542 1 20.2924 22.106 40.2404
544 1 24.9142 21.6397 40.7272
629 1 28.5528 23.9389 42.6359
698 1 26.5282 26.0827 49.8974
618 1 1.66552 26.4501 44.5098
556 1 19.6182 26.5594 40.2121
558 1 24.2514 26.5324 40.9619
1833 1 27.6091 28.417 32.1913
654 1 20.9022 12.6794 51.0382
562 1 0.991243 7.81771 44.2454
564 1 5.70524 8.09673 44.8415
566 1 10.2597 8.70438 45.4233
568 1 14.7024 7.88661 45.8278
570 1 19.6262 8.40837 46.7242
572 1 25.5469 8.13353 45.8172
574 1 31.3825 7.68738 44.2015
576 1 1.58686 12.4591 44.1865
578 1 5.48687 12.5575 44.4714
580 1 10.3619 13.4223 45.3198
582 1 14.8598 12.7069 46.0834
585 1 21.8818 10.1022 43.713
586 1 25.4765 12.3041 45.2031
657 1 29.2487 10.6385 47.0263
588 1 32.0361 12.3811 44.5588
592 1 5.63455 17.4156 44.4979
594 1 10.7344 17.6022 45.3288
599 1 21.8403 14.8464 43.5479
598 1 19.5678 17.4861 46.4979
600 1 25.543 17.0281 45.7263
671 1 29.6574 14.875 46.7805
596 1 14.9056 17.6021 46.6341
613 1 22.1795 19.6386 43.9007
685 1 29.3574 19.5501 47.2999
602 1 32.0128 17.0147 44.3338
604 1 1.40434 21.8596 44.5445
606 1 6.22883 21.949 44.119
608 1 10.2547 21.762 45.3135
610 1 14.6935 21.573 46.2625
625 1 17.2374 24.0985 43.2696
627 1 22.3101 23.6562 43.8365
612 1 19.3868 21.9274 46.9423
614 1 25.6836 22.0468 45.5531
699 1 29.1336 23.9833 48.0362
616 1 32.0951 21.4562 44.3751
635 1 7.59664 6.02961 48.3733
620 1 6.28971 26.6852 44.7196
622 1 10.6197 26.4829 45.0033
624 1 15.1617 26.8855 46.1798
628 1 25.9835 25.7873 45.1749
630 1 32.1316 26.0667 44.9366
361 1 23.7421 6.07589 25.5845
499 1 17.6809 6.00596 37.2213
6056 1 32.7112 6.46922 36.8767
676 1 5.5488 21.8898 50.9176
642 1 26.8125 8.23896 50.0254
644 1 32.4054 8.02639 48.7996
639 1 16.773 6.14934 49.5781
647 1 2.83112 10.3051 47.6314
649 1 7.35045 11.1742 48.1418
651 1 11.7887 10.8833 49.0654
653 1 16.5003 10.6668 49.0451
584 1 19.701 12.9003 46.6333
655 1 22.7198 10.8096 48.1439
656 1 26.7572 12.6861 49.8587
658 1 32.7472 12.6471 49.0761
661 1 3.30379 14.9029 47.7164
663 1 7.93262 15.2939 48.1659
665 1 12.5275 15.5783 48.91
667 1 17.1882 14.9453 49.4143
669 1 23.1654 14.9943 48.0934
672 1 33.0187 17.053 48.9753
1761 1 23.6209 28.2326 24.8486
675 1 3.29094 19.5568 48.0356
677 1 7.56634 19.6062 48.6382
679 1 11.5859 19.6025 48.6593
681 1 17.2922 19.7033 48.9982
683 1 23.0487 19.5512 48.3493
670 1 27.1464 17.4911 49.6433
674 1 0.796347 21.8217 49.9523
689 1 3.65615 24.2073 47.304
691 1 8.12209 23.9267 47.7731
693 1 12.5568 24.4076 48.807
695 1 16.3838 24.5899 49.4877
1829 1 18.9046 28.2944 30.5904
1897 1 13.8162 28.1905 36.263
1893 1 4.42877 28.3451 35.2814
495 1 9.05232 5.93222 35.7409
1823 1 5.05352 28.1009 28.7079
2043 1 29.7929 27.9997 47.1554
1967 1 12.6388 28.274 42.3834
429 1 18.4174 6.23106 31.3398
491 1 0.52205 6.13384 34.898
5991 1 31.5709 6.26541 32.3477
1763 1 28.5171 28.1664 25.4785
7291 1 32.3678 28.444 32.9495
381 1 5.29998 15.024 23.1179
308 1 30.5887 12.3097 23.1325
636 1 10.0843 7.74577 52.043
638 1 14.5961 8.74317 52.1326
2383 1 3.69723 28.2554 74.9073
712 1 27.8585 8.35512 54.1059
717 1 2.52467 10.188 54.2026
779 1 19.0517 6.34895 58.4744
650 1 9.69919 12.8825 51.7964
719 1 6.87559 9.93564 54.779
652 1 14.5 13.0262 52.0859
723 1 17.7123 10.9321 53.5382
781 1 25.0111 6.18315 57.1254
725 1 24.0201 10.6105 52.6915
726 1 27.3545 13.0734 54.619
730 1 0.672837 17.0715 56.5734
731 1 2.99329 14.9162 54.3905
940 1 0.67789 16.8068 73.3962
733 1 7.64818 14.5612 54.6172
664 1 10.2188 17.398 51.6873
666 1 14.8739 17.3948 52.6361
737 1 18.3647 15.3537 53.7724
926 1 0.370128 12.1824 73.8391
739 1 24.4141 15.2577 52.6759
740 1 28.2165 17.2836 54.0928
741 1 30.6188 14.9413 51.3873
745 1 2.52615 19.6387 53.6408
747 1 7.12933 19.2978 54.4844
751 1 17.7369 19.1159 54.5373
753 1 24.3125 19.3022 52.6513
849 1 19.9565 6.21297 63.1065
668 1 20.4842 17.3671 51.1103
2461 1 29.973 28.4133 74.8206
678 1 10.3678 21.9994 51.2118
680 1 14.9929 22.2227 52.3937
765 1 17.9698 23.758 53.7537
987 1 16.0548 6.32996 73.5428
769 1 31.2437 23.601 52.2135
754 1 27.8503 21.6532 54.812
1118 1 30.7998 25.7483 78.3787
662 1 5.49629 17.119 51.538
692 1 10.1827 26.1782 51.448
694 1 14.6636 26.6064 52.8242
989 1 22.746 5.98008 72.0196
767 1 24.4244 23.6135 53.0118
1116 1 27.1122 25.8695 77.5535
851 1 26.3257 5.89965 61.1462
704 1 4.82448 7.97965 57.3022
706 1 9.68276 8.45379 57.875
708 1 15.8018 8.41732 57.1126
710 1 21.5776 9.01987 55.4436
2253 1 31.8939 28.1998 61.0859
718 1 4.90518 12.6011 57.5138
721 1 11.4806 11.2771 54.6981
722 1 15.5155 12.9477 56.6795
724 1 21.7746 12.9534 55.1821
793 1 19.2846 10.7386 59.139
795 1 25.4148 10.9317 57.0628
797 1 31.1583 10.5457 56.0689
732 1 5.06217 16.8693 57.8949
735 1 11.8598 14.9195 55.4102
736 1 15.4367 17.3947 57.0046
738 1 22.039 17.7128 55.7647
809 1 25.2385 14.8226 57.0353
811 1 31.6185 14.8158 56.0196
749 1 12.0582 19.6937 54.8964
823 1 25.7116 19.6174 57.2556
825 1 31.8182 19.2275 56.3094
759 1 2.77956 23.9156 53.5878
761 1 7.21255 23.8155 54.1877
746 1 4.19339 21.3451 57.4053
763 1 11.6613 23.7143 55.1766
748 1 8.97515 21.9916 57.8177
750 1 15.316 22.0647 56.9276
752 1 21.5979 21.5341 55.7965
837 1 25.9068 24.3478 57.5923
839 1 31.5896 24.0297 55.8413
2323 1 33.6038 28.4671 64.9788
760 1 4.96009 25.9221 57.0491
762 1 9.02228 26.0465 58.0002
1114 1 20.927 26.404 78.3774
764 1 15.2044 26.2299 56.4941
766 1 21.1326 26.1227 55.1145
768 1 27.722 26.3646 54.2759
778 1 16.1173 7.86132 60.8913
780 1 22.5911 8.75705 60.0597
782 1 28.7722 8.0304 59.0156
2113 1 30.3369 28.1869 51.6597
787 1 2.15285 9.91623 60.1759
789 1 6.5469 10.1978 60.9861
720 1 9.21371 12.73 58.6009
791 1 12.7379 10.7572 59.3901
792 1 16.6478 12.6958 61.1631
794 1 22.4886 12.5999 60.0326
796 1 28.9248 12.6737 59.061
867 1 32.6544 10.3298 60.3903
801 1 2.3235 14.4558 60.0579
803 1 6.89373 14.8202 60.8705
734 1 9.39919 17.2832 57.911
805 1 12.8802 14.8186 60.0007
806 1 16.4498 17.3913 61.3411
807 1 19.2124 15.0154 58.5176
808 1 22.741 17.2289 60.2735
879 1 26.4164 14.5759 61.3795
881 1 32.6832 14.7572 60.5122
815 1 2.44461 19.1628 60.3822
817 1 6.43148 19.745 60.6236
819 1 12.3562 19.1888 59.6702
821 1 18.9823 19.4822 58.0975
810 1 29.1512 16.8115 58.5915
895 1 32.404 19.2786 60.8375
829 1 2.12217 23.6287 60.8816
831 1 6.2025 24.0946 60.6612
833 1 12.2937 23.2529 59.6828
820 1 16.4826 20.9356 60.68
835 1 19.2088 23.9365 58.4469
822 1 22.4068 21.868 59.7331
907 1 26.0732 23.631 61.8274
824 1 28.8182 21.3658 58.9087
909 1 32.388 24.3684 60.648
755 1 30.9766 19.875 51.8351
2181 1 25.2697 28.1165 57.0183
834 1 16.2511 26.0686 60.9027
836 1 22.7098 26.4462 60.1907
838 1 29.1495 26.4276 58.916
774 1 4.30154 8.0923 63.7705
776 1 11.0216 7.35833 62.0855
850 1 23.9392 8.59049 64.2355
852 1 29.785 8.06175 63.4365
788 1 4.25836 11.8727 63.2962
790 1 10.3496 12.1685 63.0757
861 1 13.9727 10.3876 63.8836
863 1 19.8798 9.98245 62.992
865 1 26.5437 10.7287 61.4684
864 1 23.6876 12.4719 64.7209
866 1 30.3302 12.3836 62.7807
937 1 33.6404 10.4431 64.6228
802 1 4.38127 16.5132 63.8254
875 1 13.8586 15.0381 64.0051
877 1 19.9703 14.5834 62.8789
878 1 23.8767 17.0801 64.6626
880 1 29.5487 16.6569 63.2909
951 1 33.5542 14.9928 65.1298
804 1 9.63004 17.3338 61.8639
889 1 13.8798 19.5382 63.715
891 1 20.1599 19.1664 62.5149
893 1 26.4326 19.2768 61.3187
1033 1 33.4069 19.0049 65.2202
816 1 4.28796 21.4601 64.1138
818 1 10.1204 21.199 63.1893
903 1 13.6898 24.2365 63.9729
905 1 19.642 23.4284 62.3727
892 1 23.3132 21.5965 64.1338
894 1 30.1634 21.4251 63.4907
964 1 33.9485 23.938 64.7262
830 1 3.93863 26.2196 64.1899
832 1 10.5769 25.8277 62.0895
1042 1 14.0357 26.297 75.6219
906 1 23.3995 25.7426 64.0556
908 1 29.949 26.0725 63.9852
728 1 34.0748 12.0072 52.9388
758 1 0.444705 26.4487 56.0177
844 1 5.45049 8.11777 68.1699
2389 1 22.2686 28.2586 71.3057
846 1 11.0003 8.06461 66.6888
2315 1 9.03731 28.3228 69.4614
848 1 17.5231 7.97939 65.4136
1055 1 10.6676 5.83261 79.1132
920 1 24.8753 8.10963 69.181
922 1 30.9742 7.76552 67.8604
857 1 2.10208 10.0515 66.8298
858 1 5.7003 12.4649 68.0122
859 1 7.84902 10.5008 65.8657
860 1 11.7218 12.7854 67.354
931 1 14.7741 10.3685 68.4316
862 1 17.2637 12.9583 65.6336
933 1 20.9347 10.3414 67.4681
935 1 27.486 10.3474 66.1535
936 1 31.1238 12.0995 67.9612
871 1 1.33871 14.6066 66.7852
873 1 7.81717 14.9428 65.5878
874 1 11.4339 17.0535 66.6642
945 1 15.1826 14.8478 68.3693
947 1 21.103 14.6693 67.4566
949 1 27.3293 14.2653 65.8971
950 1 30.9037 16.95 67.7958
885 1 1.98245 19.2194 67.0193
872 1 4.76312 16.8555 68.3124
887 1 7.34199 19.5261 65.243
959 1 15.1102 19.2918 68.0411
876 1 17.338 17.2171 65.746
961 1 20.6776 19.2397 67.0998
963 1 28.0115 19.0469 65.8914
899 1 1.25102 24.0681 66.5372
886 1 5.695 21.6581 68.717
901 1 7.62376 24.1671 65.2406
888 1 11.2925 21.7136 66.8507
973 1 14.9421 24.1477 68.2585
890 1 17.5497 21.8372 65.0973
975 1 21.5629 23.5803 66.632
977 1 26.6676 24.0454 65.4654
1035 1 31.4729 21.8332 67.1211
900 1 5.25787 26.0426 67.8033
1100 1 21.1235 21.7338 78.6323
902 1 11.2259 26.3813 66.6037
2177 1 12.448 27.7661 59.1079
904 1 17.9243 26.4632 65.6158
1040 1 7.06207 25.9511 76.2202
1038 1 1.23974 26.2352 77.4319
978 1 31.2339 26.1598 67.9277
1058 1 20.8418 8.47 78.8616
2463 1 34.0932 28.0684 75.6261
916 1 12.637 7.99857 70.6796
918 1 18.3891 7.91775 70.1544
927 1 2.43316 9.99504 70.8674
928 1 6.60148 12.2577 72.3573
929 1 9.54488 10.327 69.5999
930 1 13.0942 12.7716 71.0944
932 1 18.5897 12.1196 70.5714
1003 1 22.2137 10.6921 71.9618
934 1 24.7623 12.7064 68.9779
1005 1 28.4372 10.4759 70.7794
1006 1 31.9144 11.9563 72.5351
941 1 2.94414 14.5165 71.088
943 1 8.74101 15.0119 70.1821
946 1 19.0064 17.0772 69.6645
1017 1 22.2469 14.665 71.9837
1019 1 28.9677 15.1322 71.3848
1022 1 32.5013 17.6889 72.478
955 1 3.20822 19.2552 71.2066
957 1 9.18076 19.6048 69.6002
944 1 12.4643 17.5883 71.0352
1031 1 22.3711 19.478 71.6706
948 1 25.3383 16.8451 69.1306
1020 1 29.0389 19.7094 70.2154
969 1 3.1923 23.9266 70.594
971 1 8.896 23.6734 69.8117
958 1 12.8886 22.2958 70.9249
960 1 18.9301 21.8663 69.4095
1045 1 22.5412 24.2544 71.2335
962 1 24.4071 21.3403 67.9498
1047 1 28.0395 23.3479 69.8176
707 1 12.4306 6.43787 54.8095
972 1 12.1608 26.7128 71.111
974 1 18.3779 25.9922 70.0736
2247 1 13.9956 28.1745 63.4299
976 1 24.5279 26.3014 68.4772
2385 1 9.94635 28.3762 73.6486
914 1 6.3503 7.78084 72.6661
986 1 13.7476 7.85742 76.1375
988 1 19.8873 8.65397 74.5214
990 1 26.1305 8.02608 73.7821
714 1 33.5414 7.33056 53.4935
992 1 32.1309 7.858 72.0748
997 1 3.69375 10.4379 75.3925
999 1 10.5539 10.3206 74.1371
1001 1 15.8938 10.7612 73.0333
1002 1 20.044 12.71 74.5769
1004 1 26.218 12.6223 73.3413
1075 1 29.7167 10.2391 75.1244
696 1 20.5054 25.8372 51.3402
1011 1 3.99642 14.5614 75.5834
942 1 6.80432 16.8019 72.6094
1013 1 10.3968 14.9581 74.1839
1015 1 16.4944 15.3496 72.7819
1089 1 29.8027 14.3666 75.2464
1091 1 34.0132 14.8498 75.8517
1025 1 4.22875 19.0087 74.8677
1027 1 10.2211 19.7155 74.0127
1029 1 16.3736 19.3118 72.4209
1016 1 19.7834 17.2858 74.8245
1018 1 25.8433 17.3847 72.7388
1103 1 29.2788 19.9967 74.923
2111 1 24.3098 28.1971 52.3261
1039 1 3.30434 23.5284 74.933
956 1 6.92833 21.5517 72.4683
1041 1 10.7043 23.5922 74.2247
1043 1 16.8809 23.8297 73.0395
1030 1 20.4639 21.8865 73.8178
1032 1 26.1812 21.9862 73.0883
1117 1 29.7166 23.7726 74.3126
1034 1 32.018 22.1414 71.7399
2319 1 21.2474 27.9936 66.8686
970 1 5.71469 26.4532 71.9415
1044 1 20.1348 26.3057 73.5914
1046 1 26.2517 26.3219 72.9243
1119 1 34.0741 23.7349 75.453
1048 1 31.8214 26.7923 71.671
982 1 1.45189 7.88949 78.3278
984 1 7.27363 7.83173 76.7631
709 1 17.9236 6.16885 54.0403
716 1 0.531046 13.1663 56.7425
1060 1 26.8598 8.00966 78.3089
1062 1 31.3505 8.17375 78.9574
996 1 1.44538 12.1496 78.6594
998 1 7.61942 12.3851 76.9574
1069 1 10.5411 10.3929 78.4556
1000 1 13.4427 12.5977 75.6892
1071 1 17.0569 10.695 77.5286
1072 1 20.74 12.6423 79.0253
1073 1 24.0441 10.3377 76.9651
1074 1 27.229 13.066 77.8416
1076 1 31.5965 12.344 78.8894
1012 1 7.42936 17.2937 76.9618
1083 1 11.1215 14.6431 78.4887
1014 1 13.5492 17.1328 75.6915
1085 1 17.039 14.9605 77.4804
1087 1 23.4103 15.0431 76.0055
1090 1 30.7105 16.9394 78.2005
1010 1 1.81429 17.3185 77.2287
1097 1 10.9751 19.4036 78.5484
1099 1 17.1229 19.5702 77.0376
2173 1 2.63846 27.8558 59.7604
1101 1 23.5605 19.8516 75.9281
1102 1 26.9018 21.5529 77.7218
1088 1 27.2294 17.5274 77.1337
1105 1 33.9384 19.0069 75.7396
1024 1 1.49897 21.6608 77.5414
1026 1 7.33626 22.1214 76.9361
1111 1 10.7899 23.975 78.0776
1028 1 13.8018 21.4944 75.4653
1113 1 17.4243 24.0904 76.8183
1115 1 23.5335 23.7814 75.9128
1104 1 31.4653 21.7406 78.4917
727 1 30.2608 10.2959 52.2473
2175 1 6.36714 28.2976 60.9035
2455 1 10.5955 28.3883 78.1809
2313 1 2.54637 28.2276 70.5042
1063 1 33.5229 6.07154 75.5373
847 1 14.0367 5.85337 63.7225
711 1 23.9441 6.04314 52.8346
917 1 14.888 6.01326 68.4567
1059 1 23.1152 5.97905 76.4001
1086 1 20.7569 17.162 78.7829
1109 1 4.67074 23.73 79.2201