ITEM: TIMESTEP
207000
ITEM: NUMBER OF ATOMS
16000
ITEM: BOX BOUNDS pp pp pp
3.4572406141216305e-01 1.0185427593859397e+02
5.7938631424856837e+00 9.6406136857512621e+01
-5.2588271333358350e+00 1.0745882713333447e+02
ITEM: ATOMS id type x y z
10969 1 0.273308 17.6792 6.39068
217 1 15.8112 5.60048 11.0723
8 1 19.4457 7.80319 -3.8466
10 1 24.2337 8.11228 -2.87281
12 1 28.5514 7.83222 -2.68851
14 1 32.4866 8.07686 -2.55006
85 1 3.32704 10.3663 -3.0734
6 1 14.7666 8.1615 -4.36856
87 1 7.74645 9.98098 -2.58065
10956 1 0.685028 13.025 6.11406
89 1 12.1179 10.2103 -1.8903
20 1 14.8575 12.2111 -4.53798
22 1 19.4022 12.2917 -3.98388
24 1 24.3927 13.0981 -2.87583
26 1 28.6177 12.5207 -2.48284
28 1 33.3517 12.8811 -2.27573
99 1 3.48978 14.2816 -3.24171
101 1 8.05959 14.7793 -2.50057
34 1 14.7339 16.9567 -4.74731
36 1 19.8467 17.1343 -3.6932
38 1 24.6185 17.2401 -3.3503
40 1 28.3499 16.3459 -3.1446
42 1 32.8889 16.7692 -2.14449
113 1 3.32977 19.2578 -2.93789
115 1 7.30435 19.8991 -3.37223
1689 1 19.8035 28.1486 18.3827
127 1 3.60568 24.0076 -3.45999
129 1 8.21485 23.7174 -2.74579
5744 1 33.7499 9.99159 7.92651
48 1 15.0652 21.6024 -4.91727
131 1 12.6207 23.9456 -2.39921
50 1 19.3403 21.3909 -4.36654
52 1 23.8711 21.4413 -3.44212
54 1 28.5729 21.1492 -2.95442
56 1 32.4469 21.5941 -2.42661
1481 1 26.1513 28.3645 0.283432
367 1 6.21102 9.5019 22.7373
334 1 26.5105 21.3235 22.4795
379 1 1.34784 14.295 21.8189
1475 1 12.2516 27.8722 -2.44317
64 1 19.2388 25.6701 -3.606
66 1 24.1568 26.1707 -3.4817
68 1 28.3805 25.8618 -2.55129
70 1 33.0564 26.3228 -2.30013
10878 1 1.2543 7.66459 -0.00626331
72 1 5.94089 7.91218 0.097638
74 1 10.198 7.8723 0.910467
141 1 3.30193 5.91338 2.70517
395 1 6.0496 18.9807 22.9176
10891 1 0.440778 11.7885 -0.771078
86 1 5.87843 13.2741 0.568211
88 1 10.2244 12.0989 1.01194
90 1 14.8515 12.9342 1.45879
91 1 16.6843 9.60735 -1.151
93 1 21.3885 10.2751 -1.24133
95 1 26.3744 9.91137 -0.175541
97 1 30.8613 10.4316 1.16176
10904 1 1.086 15.8846 -0.549054
100 1 5.56284 17.1571 0.0886655
102 1 9.99608 16.7059 1.27582
103 1 12.7573 14.8001 -2.01404
105 1 16.6441 15.2321 -1.44372
107 1 21.5686 14.8598 -0.620147
109 1 26.3851 14.6927 0.000469493
111 1 30.8359 14.3307 1.48942
117 1 11.8682 19.4714 -1.99019
104 1 14.8028 16.5656 1.70034
119 1 16.7559 19.5717 -1.36894
121 1 21.2599 19.3528 -0.85923
123 1 26.3842 19.4658 -0.079296
125 1 30.3598 18.8881 0.226994
10917 1 0.924776 21.4684 -0.654243
114 1 5.36912 21.6111 0.502276
116 1 9.91057 21.4224 0.745576
118 1 14.2968 21.2247 1.23983
133 1 16.9806 24.0307 -1.07033
135 1 21.3559 23.6418 -0.101383
137 1 26.0091 23.7497 0.0671355
139 1 30.1975 23.3795 -0.0360921
10930 1 0.96967 26.3587 -0.437802
128 1 5.55933 26.2107 0.089507
130 1 9.97892 25.8131 0.984294
1479 1 21.6188 28.1288 -0.317005
342 1 12.6719 26.0567 20.7089
340 1 8.07019 25.8036 19.6377
76 1 14.731 7.36743 1.36952
78 1 19.1816 8.051 2.33007
80 1 23.933 7.54213 3.04711
82 1 27.8881 7.73555 3.66049
84 1 32.581 7.90318 4.21175
155 1 2.92792 10.6498 3.4038
157 1 7.72224 10.8678 3.90225
159 1 12.2968 10.1668 4.13849
161 1 16.0131 10.0104 4.86688
92 1 18.6466 12.4548 2.04138
94 1 23.4447 12.2371 2.57849
96 1 27.191 12.1593 3.64769
98 1 31.7062 12.2559 4.4624
169 1 3.59198 15.2899 3.33422
171 1 7.45985 14.7475 3.71894
173 1 12.0091 14.0382 4.70248
110 1 28.1007 16.8326 3.56868
183 1 2.86455 19.4768 3.16467
185 1 7.40515 19.0548 3.93537
187 1 11.9131 19.2277 4.17131
106 1 19.3084 16.6695 2.13111
108 1 23.4284 16.8632 2.52952
112 1 32.6366 17.476 3.91155
197 1 2.86556 24.0226 3.5626
199 1 7.28664 23.8561 3.82925
201 1 11.8833 23.945 4.31415
203 1 16.2586 23.5052 4.89686
120 1 18.9428 20.9644 1.83403
122 1 23.4164 20.9826 2.41112
124 1 27.9752 21.4632 3.48949
126 1 31.9216 21.9149 4.15527
149 1 21.0548 5.89259 5.11376
294 1 30.5314 7.94535 22.9141
132 1 14.0163 25.9959 1.34145
336 1 30.4003 21.3507 22.8608
134 1 18.8285 25.7064 2.20484
136 1 23.531 26.5219 2.77388
138 1 28.0573 25.5733 3.75393
140 1 32.465 26.1675 4.28647
1477 1 16.9935 28.1396 -1.31029
142 1 4.99942 7.64018 6.184
144 1 9.60445 7.66273 6.86782
146 1 14.2383 7.62105 8.10299
148 1 18.5979 7.98087 8.62258
1611 1 2.58654 27.9374 9.07949
10943 1 0.492943 8.3718 5.55975
156 1 5.12861 12.4469 7.03504
158 1 9.76886 12.4291 7.39301
160 1 14.0215 11.7004 8.14783
163 1 20.6098 9.87312 5.49552
165 1 24.9788 10.1059 6.35327
167 1 29.4518 10.2612 7.10977
348 1 26.0439 25.9513 22.0927
170 1 4.8898 17.0961 6.59898
175 1 16.5579 14.4105 5.05905
177 1 21.697 14.2956 5.27281
179 1 25.8099 14.718 5.87219
181 1 30.3415 14.8452 6.91737
346 1 21.513 26.2856 21.5419
344 1 16.7829 25.8982 20.7605
172 1 9.46805 16.9364 7.41382
174 1 13.6758 17.3157 8.2449
189 1 16.6119 19.2102 4.98099
191 1 21.1843 18.9783 5.75575
193 1 25.1363 19.3342 6.14995
195 1 30.3129 19.2565 7.0103
184 1 4.77094 21.721 6.40769
186 1 9.41584 21.5803 7.41684
188 1 14.1884 21.9307 7.60977
190 1 17.9977 21.0308 7.91547
205 1 20.9602 23.4946 5.05913
207 1 25.1321 24.2527 6.55942
209 1 30.6688 23.8847 7.38374
293 1 28.7311 5.58777 19.1672
198 1 4.85021 26.0882 6.02644
200 1 10.047 25.7802 7.13822
202 1 13.9417 26.4335 7.79912
338 1 3.55512 26.0159 19.2677
1619 1 20.2021 28.1366 12.414
1551 1 25.0897 28.4092 6.63204
5822 1 33.9086 14.8713 14.1287
79 1 21.4614 5.96739 -0.357968
5913 1 33.0275 23.8344 19.6391
150 1 23.3503 7.52607 8.86365
152 1 27.1761 7.51232 9.89171
154 1 31.4242 7.72031 10.6142
225 1 2.44937 10.687 9.39662
227 1 6.86757 10.1907 9.71027
229 1 11.325 9.67977 10.8729
162 1 19.0221 12.5466 8.4533
231 1 15.6258 9.96766 11.6474
233 1 20.6689 10.6927 11.73
164 1 23.3901 12.3152 9.04077
166 1 27.3186 12.6108 9.58158
168 1 31.9604 12.5218 10.6697
239 1 2.71855 14.9022 8.99129
241 1 6.51671 14.569 10.1866
243 1 11.1288 14.5294 11.2475
176 1 18.4813 16.7369 8.31267
245 1 15.6402 14.6149 11.2266
178 1 23.0021 16.8845 8.78841
253 1 2.27237 18.878 9.45089
255 1 6.97483 19.4644 10.119
257 1 11.3115 19.2986 10.39
259 1 16.0771 19.0613 10.9725
261 1 20.4574 19.2578 11.6186
180 1 27.5282 17.2012 9.52168
182 1 32.2387 17.1823 10.7267
267 1 2.73161 23.4604 9.22785
269 1 7.37268 24.1161 9.73143
271 1 11.6917 24.0237 10.7769
273 1 16.2106 23.5983 10.6002
192 1 23.0006 21.6316 8.98119
275 1 20.6929 23.6674 11.6048
194 1 27.2335 21.8699 9.84671
196 1 31.9486 21.4544 10.3297
409 1 5.92402 23.5549 22.4632
332 1 21.4912 21.8638 21.9443
1753 1 5.7542 28.305 22.7085
204 1 18.2983 25.9024 8.13214
349 1 28.8956 23.7543 19.586
206 1 22.9341 25.8916 9.52146
208 1 27.5962 26.6534 9.80971
210 1 31.4973 25.723 10.6037
295 1 2.04696 9.90863 15.5499
212 1 4.49061 7.90611 12.8252
214 1 8.42835 7.84777 13.09
216 1 13.1663 7.79502 14.5381
218 1 17.6174 8.39278 14.7612
1549 1 20.8312 27.9611 5.84982
1693 1 28.752 27.9367 19.7004
226 1 4.07069 12.6388 12.7386
297 1 6.13732 10.5373 16.3499
228 1 8.71472 12.4425 13.7475
230 1 13.0484 12.3632 14.3139
232 1 18.0076 13.0386 14.9675
235 1 25.4112 9.83287 12.236
237 1 29.4698 10.0846 13.9446
5809 1 33.4966 10.0405 14.2171
309 1 2.38747 14.4093 15.6613
242 1 8.97818 17.1562 13.8997
244 1 13.6665 17.3173 13.8709
246 1 17.9052 16.9969 14.8592
247 1 20.1534 14.5936 11.8261
249 1 24.71 14.3081 12.1592
251 1 29.4329 14.5625 13.0309
83 1 29.8563 6.02733 0.822652
240 1 4.34249 17.5159 12.5944
248 1 22.5719 16.9265 15.0942
263 1 24.9643 19.0343 12.3956
265 1 29.2719 19.272 13.1636
5835 1 33.8552 19.3876 13.9587
337 1 2.29038 23.3552 15.803
254 1 4.98206 21.7493 13.0559
256 1 9.58912 21.2438 13.2268
258 1 13.446 21.8169 13.895
260 1 17.587 21.5557 14.3878
262 1 22.2539 21.5269 15.2481
277 1 24.4285 23.8425 13.0267
279 1 29.2661 23.8859 13.3862
5848 1 33.837 23.8425 14.1202
7096 1 33.7777 28.03 14.1197
268 1 4.25034 26.086 12.6041
270 1 8.95121 26.0047 13.4318
272 1 13.6235 26.0189 13.7871
274 1 18.1469 26.1048 14.8821
276 1 22.0511 25.9702 15.5229
282 1 4.25237 7.86179 19.6638
1687 1 15.2049 27.9631 17.6722
220 1 22.2133 7.92324 15.1139
222 1 26.7433 8.02042 16.3148
224 1 31.4213 8.03586 17.6267
296 1 4.23339 11.8595 19.1512
299 1 10.6936 10.0315 17.526
301 1 15.2892 10.7895 17.6257
303 1 19.9491 10.4421 18.3603
234 1 22.3774 11.857 15.1089
305 1 24.3457 10.0317 18.8421
236 1 26.7852 12.5524 16.0344
238 1 31.292 12.2872 16.7541
310 1 3.85559 16.8406 19.3931
311 1 6.27865 14.4925 15.9476
313 1 10.7126 15.453 16.9944
315 1 15.3832 15.2364 17.475
317 1 19.8984 14.7379 18.1073
319 1 24.0275 14.8164 19.1211
323 1 1.87822 19.2091 16.0256
325 1 6.50601 19.0684 16.1915
327 1 11.0939 19.4227 17.1474
329 1 15.5687 19.111 17.6304
331 1 20.1249 19.2567 18.1487
333 1 24.0266 19.3663 18.9155
250 1 26.3577 16.8322 15.6169
252 1 31.3892 17.0615 16.5108
324 1 4.05752 21.4785 19.0837
339 1 6.61578 23.7 15.9983
341 1 10.6528 23.9672 16.921
343 1 15.2766 23.5947 17.2789
345 1 19.9654 23.5794 17.9042
347 1 24.4629 23.8694 18.7719
264 1 26.4957 21.5223 16.0399
266 1 31.6975 21.7032 16.2928
1621 1 25.0662 28.3332 12.6798
330 1 16.9077 21.3126 21.1269
1547 1 16.0651 28.2217 5.20447
1681 1 2.23872 28.2619 15.2724
278 1 26.782 25.884 16.0121
280 1 31.2315 26.6437 16.652
328 1 12.831 21.5104 20.6034
143 1 7.79159 6.06052 3.68022
284 1 8.29108 7.99207 19.6047
1617 1 15.9847 28.1561 11.4006
286 1 13.051 8.05027 20.7091
288 1 17.2865 8.12844 21.0063
290 1 21.9126 8.4073 22.0146
292 1 25.892 7.58257 22.2845
211 1 2.27664 6.03478 9.157
1613 1 7.19512 28.274 9.65609
365 1 1.46941 9.64711 21.7691
287 1 14.8346 6.03762 17.8075
298 1 8.23024 12.437 19.3203
300 1 12.6102 12.6209 20.3871
302 1 17.1629 12.7358 21.1488
304 1 21.9734 12.9297 21.7169
306 1 25.9023 12.584 22.657
307 1 28.8081 10.7655 20.4025
5874 1 33.4515 10.8839 20.8273
1683 1 6.09406 28.1919 15.9008
289 1 19.0284 6.29258 18.4636
312 1 7.84214 17.1496 19.4144
326 1 8.63958 21.1908 19.5734
314 1 13.0364 17.1095 20.6948
316 1 16.9423 17.4062 20.8033
321 1 28.8104 14.8105 19.5501
5887 1 32.9908 14.7401 20.2683
393 1 1.34031 18.7615 21.7716
407 1 1.39726 23.4825 22.0199
318 1 21.5939 17.0444 21.573
335 1 28.8345 19.2548 18.9227
320 1 26.0178 17.2603 22.0695
5900 1 33.397 19.249 19.7968
1541 1 2.93672 28.2454 3.17356
1473 1 7.98129 27.7642 -2.62081
1685 1 10.8104 28.26 16.9035
153 1 29.8689 5.54093 7.31254
381 1 5.33601 14.2799 22.5375
322 1 30.0566 17.6114 22.5837
352 1 3.26378 8.01832 25.789
354 1 7.66385 7.32637 26.3756
356 1 12.1513 7.70667 26.9
700 1 33.9904 26.7096 49.0074
357 1 14.5169 5.82168 24.4105
449 1 0.544398 14.4839 28.3773
366 1 3.54911 11.9134 25.2248
368 1 7.97691 12.1709 26.2492
371 1 14.4729 10.6263 23.9736
370 1 12.179 12.0481 27.0942
373 1 19.2511 10.5157 24.5752
375 1 23.9882 10.2265 24.9126
377 1 27.8599 10.1574 26.0592
5939 1 32.4156 9.96747 26.2669
499 1 18.2256 6.26267 36.7969
382 1 7.57096 16.8409 26.7469
385 1 14.2144 14.3936 24.0768
384 1 12.2673 16.7614 26.3708
387 1 18.8733 14.4847 24.4403
389 1 23.2516 14.8772 25.5494
391 1 27.8605 14.8052 25.4214
5952 1 32.3837 15.4118 26.1241
380 1 3.34032 16.5529 25.3248
632 1 0.161169 7.79409 50.6362
399 1 14.3291 19.5548 24.4784
401 1 19.0223 19.2478 24.5428
403 1 23.1653 19.4082 25.2508
688 1 0.685386 26.4345 50.4858
394 1 2.96216 21.3132 25.3231
1965 1 8.19228 28.4834 42.155
413 1 14.5494 24.0054 24.3357
415 1 18.8241 23.7453 24.5234
417 1 23.9677 23.9808 25.4042
419 1 28.2211 24.0255 25.7742
497 1 13.9432 5.99235 36.4639
408 1 2.97963 25.9098 24.9744
410 1 7.53612 26.178 26.0828
533 1 0.26845 18.8083 34.7241
563 1 3.77371 6.04858 41.7805
6147 1 33.9914 14.9174 41.6054
358 1 17.1605 7.54142 27.6049
360 1 21.6927 7.9356 28.3466
362 1 25.911 8.26398 28.6558
364 1 29.9774 7.85183 29.3111
435 1 0.747437 9.53002 28.5538
437 1 5.19148 10.2393 29.3006
439 1 9.4068 10.3355 29.5504
441 1 14.7553 10.7088 30.208
372 1 17.0897 12.1944 27.1495
374 1 21.0961 12.6164 27.9135
376 1 25.8217 12.5433 29.2078
378 1 30.4443 12.3495 28.6138
451 1 5.2178 14.726 28.7197
453 1 9.85379 14.8742 30.0256
386 1 16.6031 16.9387 27.5952
392 1 29.9037 16.8573 29.2933
465 1 4.84622 19.4772 28.7111
467 1 9.71372 18.9742 29.3768
469 1 13.1612 19.4184 29.8774
388 1 21.1024 17.174 28.2661
390 1 25.5805 17.2589 28.9955
405 1 27.6552 19.3955 26.1301
5965 1 32.3752 19.8474 26.0296
397 1 9.95825 19.301 23.623
396 1 7.53827 21.3494 26.2671
479 1 4.93086 24.1758 28.5791
481 1 9.43014 23.7059 29.4793
398 1 11.4767 21.5074 26.7608
400 1 17.0857 21.4758 27.8149
402 1 20.8312 21.8469 27.9458
404 1 25.3759 21.8314 28.5816
406 1 30.1904 21.4816 28.8798
5978 1 32.8595 24.4437 26.3819
1821 1 0.709781 28.0843 28.3201
429 1 18.9953 5.50928 31.1729
7291 1 31.7531 28.6361 32.4782
412 1 12.1031 26.0972 27.1453
414 1 16.8174 26.7078 27.4975
416 1 21.0189 26.5468 28.1445
418 1 25.7425 26.1709 28.804
420 1 30.2357 26.4883 29.1057
422 1 2.61091 7.96869 32.1508
424 1 7.2746 7.93893 32.9258
426 1 11.7996 8.23807 32.8263
428 1 15.991 8.60195 33.131
5926 1 33.2364 6.061 26.6791
427 1 13.9847 5.8978 30.4393
436 1 2.35829 12.5764 32.3678
438 1 6.88855 12.423 32.7817
440 1 11.3669 12.2169 33.5502
443 1 18.7548 10.2669 31.0572
442 1 16.1723 12.3447 33.8963
445 1 23.5066 10.4617 31.4284
447 1 27.5972 10.2729 32.5692
383 1 9.53688 14.7956 23.0534
6004 1 31.7155 10.2036 33.135
452 1 6.32069 17.1682 32.4938
455 1 14.6352 14.9076 30.046
454 1 11.6336 16.7856 33.2002
457 1 18.7803 14.9672 31.2082
459 1 23.3383 15.0029 31.2673
461 1 28.0133 14.9486 32.2692
6017 1 32.2121 14.223 32.5407
450 1 2.57998 16.9045 31.3824
471 1 18.283 19.446 31.2311
473 1 22.7161 19.4923 31.7727
475 1 27.5944 19.0187 31.6558
6030 1 32.1957 19.4352 32.5202
464 1 2.93945 21.5672 31.2903
466 1 7.46412 21.1865 32.344
483 1 14.4478 23.8056 29.7744
468 1 11.5964 21.4723 32.8454
485 1 18.4705 24.1258 30.3413
470 1 16.0758 21.6292 33.6504
487 1 23.2253 24.0673 31.2408
489 1 27.8294 23.756 32.0797
6043 1 31.8985 23.8891 32.71
478 1 2.89177 25.5271 31.6872
480 1 6.97369 26.4408 32.2196
482 1 11.4231 26.122 32.8294
6173 1 33.8832 23.8361 41.2346
641 1 23.2948 6.27217 48.6397
6160 1 33.7993 19.009 41.4142
698 1 26.6251 26.1974 49.7082
430 1 20.9967 8.43161 34.3024
432 1 25.6732 8.01447 34.9096
434 1 29.6486 8.19625 35.5738
507 1 4.77365 10.5676 35.4845
509 1 9.55093 10.0909 35.9911
511 1 14.102 10.2328 36.5586
513 1 17.7869 10.2718 37.3753
444 1 20.6003 12.5032 34.0159
446 1 24.8154 12.3449 34.2504
448 1 29.4012 12.6291 35.6084
6069 1 33.0516 10.5796 37.1151
521 1 4.66882 15.1108 35.4019
523 1 8.34211 14.868 35.6785
525 1 13.5748 14.7789 36.7669
456 1 15.9931 16.4003 33.8533
6082 1 32.9742 15.0263 37.232
535 1 4.19719 19.3697 35.0854
537 1 8.71905 19.1994 35.7402
539 1 13.0562 19.6291 36.6839
541 1 17.8135 19.0125 37.136
458 1 20.4519 16.9341 34.713
460 1 25.247 16.9589 34.7724
462 1 29.9515 17.3868 35.2175
549 1 4.45879 23.432 35.2791
551 1 9.33133 23.4901 36.0804
553 1 14.7531 23.2395 36.7402
472 1 20.0001 21.5643 33.8336
474 1 24.5033 21.539 34.4078
476 1 29.1882 21.9137 35.0798
369 1 10.0281 10.2492 23.3945
1897 1 13.563 27.7263 36.7128
484 1 15.9823 26.1655 33.6419
486 1 20.4511 26.0663 34.0715
488 1 24.9118 26.1283 35.0576
490 1 29.1241 26.3083 35.2359
492 1 1.84153 8.08406 37.9729
494 1 6.26232 8.29854 38.3551
496 1 11.6716 7.64115 39.4872
498 1 15.9491 7.99868 40.054
1967 1 12.7821 28.2288 42.648
2033 1 3.043 28.5153 47.059
504 1 31.3506 7.50055 40.1978
506 1 1.76078 12.3079 37.7998
508 1 6.28784 12.2001 38.8224
510 1 10.8351 12.4014 39.884
512 1 15.4589 12.9517 40.3236
515 1 22.4199 9.99387 37.6926
517 1 27.5617 9.61607 38.771
518 1 30.7902 12.2475 40.0326
520 1 1.87325 16.6257 38.4061
522 1 6.35634 17.2002 39.299
524 1 10.8805 17.0509 39.4423
527 1 18.1462 15.1078 37.1325
526 1 15.2596 17.2332 40.3013
528 1 19.872 17.4668 40.7158
529 1 22.9021 14.5298 37.5138
531 1 27.3468 14.7623 38.1117
532 1 30.6097 17.0247 39.8232
543 1 22.2299 19.0801 37.5567
545 1 26.6357 18.8821 37.6968
6095 1 33.5489 19.4016 36.9959
534 1 1.87223 21.2004 38.4631
536 1 6.4914 21.4505 38.4252
538 1 11.1359 21.8857 39.043
540 1 16.0049 21.1703 40.0524
555 1 18.2458 23.9577 37.3195
557 1 22.2272 23.8723 38.1135
542 1 20.3565 21.5007 40.9072
559 1 26.9349 23.2431 38.9429
6108 1 32.8695 24.0682 36.5813
546 1 31.3797 21.5877 39.1839
548 1 1.91328 26.0447 38.0794
550 1 6.66451 26.1898 38.2545
552 1 10.4323 26.7023 39.0784
554 1 16.5386 27.1645 40.3992
1833 1 27.2264 28.3024 31.3577
560 1 30.1474 26.2012 39.6561
577 1 3.58266 10.4849 41.245
500 1 20.4273 7.83414 40.4732
585 1 21.9232 10.355 44.1289
502 1 24.4821 7.76107 41.6695
686 1 32.8212 22.2792 48.4195
587 1 28.6296 10.4083 42.644
576 1 1.02328 12.5933 44.3732
579 1 8.66855 10.157 42.0538
581 1 12.5657 10.3605 43.3178
583 1 17.3228 10.1377 43.1555
514 1 20.1435 12.7344 40.7182
516 1 24.6613 12.3661 41.193
1759 1 19.9076 28.2141 24.5313
591 1 3.91947 14.6203 41.1754
590 1 1.61391 17.1541 44.7184
593 1 7.70358 14.9854 42.4933
595 1 12.2924 15.1451 43.1018
597 1 17.1321 15.0377 44.0554
599 1 22.1118 15.1829 44.1621
601 1 28.0796 15.0804 42.664
495 1 8.98467 6.05011 35.9393
605 1 3.76102 19.4142 41.3882
607 1 8.55517 19.2192 42.0589
609 1 12.7426 19.9246 42.8578
611 1 17.4493 19.101 43.8728
613 1 22.1015 18.9949 44.3439
530 1 24.7132 17.0356 40.8961
615 1 28.2148 19.7386 42.0807
604 1 1.46253 21.6899 44.1865
619 1 4.27942 23.8665 40.9553
621 1 8.92723 23.8955 41.6086
623 1 13.3603 24.3949 42.3739
625 1 17.6765 23.8129 43.315
544 1 24.6028 20.7157 40.7613
629 1 28.0076 24.4887 42.6315
1963 1 3.77864 28.6994 41.1839
1761 1 23.4971 28.156 25.2078
556 1 20.199 25.8314 40.8129
558 1 24.8788 25.9911 40.7824
562 1 1.16041 8.62349 43.8532
564 1 5.93393 8.06817 44.7087
566 1 10.73 7.97147 45.5171
568 1 14.6428 8.18529 46.3631
572 1 26.3852 8.17609 46.0476
574 1 31.9722 7.45416 44.669
647 1 3.11002 10.4511 47.8132
578 1 5.67889 12.7331 44.9222
580 1 10.1601 12.1453 46.124
582 1 14.6183 12.7146 46.1579
584 1 19.6453 12.6205 46.3579
586 1 25.8903 12.4731 45.6989
657 1 29.4693 10.4131 47.4315
588 1 31.7215 12.0802 44.655
592 1 5.62318 17.5449 44.7155
596 1 14.8926 17.4353 46.1266
598 1 19.6148 17.2032 46.6394
600 1 25.6554 17.902 45.4471
671 1 29.662 14.7769 46.9855
602 1 31.4089 17.6533 44.4732
594 1 10.19 16.8495 45.4369
685 1 29.1618 19.122 47.2272
606 1 6.0699 22.1969 44.6854
608 1 10.475 21.7696 45.4374
610 1 14.4696 21.8669 46.2389
627 1 21.6633 23.5999 43.9844
612 1 19.8198 21.8685 47.0113
614 1 25.7675 21.7831 44.8997
699 1 29.313 23.9008 46.8206
616 1 31.6694 22.2538 43.9933
618 1 1.25989 26.5004 43.9026
620 1 5.61697 25.971 45.3186
622 1 10.2873 26.02 45.6359
624 1 15.0065 26.4495 46.2605
2037 1 12.0221 28.7017 49.0292
626 1 19.6583 26.6884 46.7742
628 1 24.7581 25.8035 45.6136
630 1 32.0071 26.5515 44.3159
308 1 30.6417 12.8936 23.5593
1893 1 4.10485 28.1273 35.2399
570 1 19.6991 8.62098 46.7962
642 1 27.0682 8.61756 50.5202
644 1 32.8832 8.41145 49.0378
571 1 22.4197 5.78225 44.2585
649 1 7.69601 10.2078 48.2691
651 1 12.8311 9.84979 49.0806
653 1 17.3362 10.5667 49.5116
655 1 23.1089 10.7677 48.8102
1823 1 4.62515 28.6606 28.5304
656 1 26.5922 12.5801 49.8331
658 1 33.5198 13.06 48.6933
661 1 3.30114 14.5818 47.8701
660 1 0.55693 16.851 50.6248
663 1 7.63636 14.6717 48.699
665 1 12.3064 14.3646 48.6161
667 1 17.0042 15.1398 49.4622
569 1 17.9342 6.46741 43.9527
669 1 23.2039 15.3739 48.0345
672 1 33.0687 17.3324 48.796
675 1 3.21742 19.4199 48.0146
677 1 7.86921 19.2029 47.7625
679 1 12.7317 19.3089 48.7461
681 1 17.1523 19.0013 49.0409
683 1 23.1685 19.813 48.4324
670 1 26.7392 17.1295 49.5794
674 1 0.617662 21.6217 50.6367
689 1 3.28862 24.1608 47.8838
691 1 7.9673 23.8461 48.5341
5991 1 32.104 5.86342 32.4725
693 1 12.6634 23.8863 48.9913
695 1 17.2967 23.8216 49.6306
697 1 22.9542 23.5027 48.4897
684 1 26.8497 21.6603 50.3277
1895 1 8.82511 28.1119 35.4986
350 1 30.5877 26.5917 22.6578
1899 1 18.3059 28.2968 37.2984
2043 1 29.2147 28.6243 47.1493
477 1 0.631776 23.659 27.7951
411 1 9.70946 23.9549 23.0518
662 1 5.3059 17.1281 51.0452
2039 1 16.8895 28.2142 49.6335
7356 1 33.1193 28.4713 37.1327
1973 1 28.1096 28.1935 43.4668
668 1 21.2439 17.4717 50.8842
755 1 30.2769 19.6313 50.8199
769 1 30.5415 24.1437 50.5399
690 1 4.67265 26.0443 51.1269
1119 1 33.7973 23.6976 75.1788
636 1 10.0086 7.41121 51.5945
638 1 14.4088 7.551 52.5326
758 1 0.598698 26.035 57.0117
1114 1 21.0611 26.1544 78.9274
712 1 27.5404 8.18383 54.4205
2251 1 26.5688 28.2215 61.8808
717 1 2.93653 9.83832 53.943
919 1 21.405 5.93989 67.3391
650 1 9.97977 12.2788 51.8651
652 1 14.25 12.496 52.3981
723 1 18.278 10.5607 54.0239
725 1 23.7007 10.7612 52.8436
727 1 30.5667 10.5517 51.145
726 1 26.975 12.3303 53.715
728 1 34.1233 12.5156 53.2823
731 1 2.62841 14.4358 54.2306
702 1 0.299963 7.97405 56.4676
664 1 9.84917 17.0705 51.5389
666 1 14.3059 16.6897 52.051
737 1 18.4209 14.8992 53.6149
739 1 24.187 15.2734 52.9442
740 1 27.8408 17.0662 53.8919
2391 1 28.0596 28.4572 71.1135
742 1 33.898 17.1733 53.164
745 1 2.50594 19.0392 53.9568
751 1 17.7832 19.5629 53.6876
753 1 24.5374 19.9015 52.985
989 1 22.029 5.85044 71.5916
759 1 3.00301 23.8573 54.1765
761 1 7.00278 23.8927 54.3933
678 1 9.61831 21.3336 51.5277
680 1 14.028 21.2403 51.9321
765 1 17.4542 24.2595 54.2947
2113 1 29.7763 28.0722 51.6441
767 1 24.046 24.1451 52.8941
991 1 28.4655 6.12505 70.5415
754 1 28.2349 22.3111 54.141
1057 1 17.5822 5.81682 76.814
781 1 24.6088 6.24415 57.4132
692 1 9.92284 26.2128 51.806
694 1 14.4942 26.5596 52.4674
640 1 20.2985 8.29404 51.4522
2253 1 32.386 28.2816 60.6178
768 1 27.3006 25.9303 54.5086
696 1 20.2249 26.34 51.2158
654 1 20.8627 12.8861 51.1489
704 1 5.10927 7.79795 57.1554
706 1 9.54847 7.47591 57.9233
676 1 5.29378 21.3122 51.0496
1118 1 31.3684 26.1528 78.0636
708 1 15.4596 8.59172 56.5906
710 1 21.6221 7.80732 55.4261
719 1 7.49307 10.1671 54.2248
718 1 4.89727 12.3231 57.387
720 1 9.49951 12.205 57.5886
721 1 11.6313 10.4808 54.8226
722 1 15.5381 12.5197 56.5794
724 1 21.6193 12.8172 55.8259
795 1 25.1367 9.80762 57.261
797 1 31.4343 10.1527 55.5238
733 1 7.41968 14.9636 54.3946
732 1 4.83606 17.1145 57.4161
734 1 9.25772 16.7763 57.8154
735 1 12.1351 14.1611 55.3108
738 1 21.0797 17.3183 54.9062
809 1 25.2275 14.519 56.9827
811 1 31.1745 14.8975 56.126
747 1 7.30944 19.5198 54.4314
749 1 11.8444 19.3192 54.9588
736 1 15.2326 16.9545 56.6637
823 1 24.7723 19.4606 56.8671
825 1 31.7225 19.517 55.5105
746 1 4.5355 21.5931 57.1901
763 1 11.8694 23.6871 54.9241
750 1 14.9887 21.5735 56.7785
835 1 19.1358 23.7424 58.653
752 1 21.2093 21.7828 55.747
837 1 25.1031 23.9954 57.1399
1102 1 26.7716 21.3841 77.6323
839 1 30.9987 24.2073 55.5893
760 1 4.47405 26.3202 57.7148
762 1 9.52109 25.8538 58.3087
764 1 15.4478 25.9882 57.0073
1077 1 33.5817 10.2362 75.2133
766 1 21.4406 26.5323 55.746
1115 1 23.1965 24.2136 76.0258
1116 1 26.7162 25.9854 77.9351
778 1 16.4131 7.78243 61.1682
780 1 22.5959 7.83263 60.4851
782 1 29.0412 7.68815 58.0567
787 1 2.57485 10.1257 59.9765
789 1 6.77501 10.0515 60.6285
791 1 13.2616 10.132 59.6178
792 1 16.5398 12.4628 61.6561
793 1 19.4614 10.5446 58.4664
794 1 22.9967 12.5882 59.8382
796 1 28.1902 12.3528 58.3576
867 1 31.8869 10.607 59.4623
801 1 1.82889 14.6486 60.1109
803 1 6.60417 14.6719 60.1681
805 1 12.8118 14.7087 59.6244
807 1 19.1271 14.6104 58.3592
808 1 22.8921 16.9742 60.2446
810 1 28.5579 16.9129 58.0119
881 1 32.1656 14.915 60.3879
815 1 1.9025 19.3881 60.3909
817 1 6.62485 18.3862 60.5195
819 1 12.8422 19.3368 59.6141
806 1 16.3441 16.8392 61.2987
821 1 19.0337 19.2236 58.2463
893 1 26.2297 19.3634 61.4147
895 1 32.2153 19.5218 60.1142
829 1 2.2088 23.4902 60.4414
831 1 6.45708 23.6636 61.0574
748 1 8.798 21.4193 57.8049
833 1 12.3481 23.6144 59.7596
820 1 16.5266 21.5381 60.7597
822 1 22.3985 21.8121 60.4031
824 1 28.6604 21.8509 58.2533
909 1 31.9369 23.5257 60.2803
646 1 0.772431 12.3575 51.0489
1091 1 34.1268 15.1138 75.5508
834 1 16.6817 26.2178 61.5307
836 1 22.7269 26.5012 60.3031
838 1 28.4048 26.5438 58.8587
774 1 3.97424 8.06069 64.045
776 1 10.3796 7.88538 62.5566
917 1 14.7587 6.08087 68.6964
850 1 24.4499 8.15599 64.3545
648 1 5.59894 12.7165 51.2061
852 1 29.99 8.01435 62.4058
788 1 4.02448 12.291 63.8103
790 1 10.6161 12.5653 62.3991
861 1 14.0635 10.2087 64.4381
863 1 20.1689 10.1604 62.655
865 1 26.4206 10.3661 61.2748
864 1 23.5675 11.9728 64.4853
866 1 30.0766 12.5874 63.2057
802 1 3.98944 16.9645 63.2835
873 1 7.71232 14.9405 64.7847
875 1 13.8384 14.1401 64.0739
877 1 19.9828 14.5327 62.8129
878 1 24.0505 16.7818 64.7262
879 1 26.3816 14.8724 61.7249
804 1 10.4555 16.408 62.1737
889 1 14.0617 19.1409 63.5636
891 1 19.7531 19.0607 62.9201
880 1 29.9273 17.2832 62.595
816 1 4.30524 21.3802 63.3676
818 1 10.172 21.1558 62.0656
903 1 13.7647 23.3426 63.9836
905 1 20.3337 23.6014 63.234
907 1 26.3925 23.9433 61.6066
892 1 24.1106 21.54 64.6497
894 1 29.9956 21.9153 63.2553
964 1 33.7229 24.265 65.1586
830 1 3.91704 25.9662 63.9905
832 1 10.3362 25.8343 62.8799
1061 1 29.0381 5.84492 75.1173
906 1 23.635 26.2999 64.734
908 1 29.7319 26.803 63.4343
1113 1 17.0274 23.4049 77.0098
844 1 5.1236 8.09331 68.84
2387 1 16.4689 28.6608 73.3778
846 1 11.2042 7.69667 66.3642
848 1 17.3769 7.95598 65.8915
922 1 30.8362 7.69301 67.4739
857 1 1.39222 9.53849 66.5126
858 1 5.07845 12.4884 67.8417
859 1 8.02493 10.2313 65.1082
860 1 10.8644 12.2198 66.9315
931 1 14.9616 9.94673 68.2594
862 1 17.7473 12.564 65.5812
933 1 21.4306 10.3463 67.2732
935 1 27.5252 10.5062 65.5974
937 1 33.6573 10.0884 64.7498
936 1 31.0074 12.4034 67.8548
871 1 1.70329 14.2837 66.6086
872 1 4.89346 16.6643 67.8649
947 1 21.2213 15.2393 67.1157
949 1 27.4737 15.2544 66.1397
951 1 33.5292 14.8087 64.5533
885 1 1.24538 19.3047 66.2231
874 1 11.4583 16.907 66.6842
887 1 7.74594 19.0365 65.177
876 1 17.7161 17.0661 65.8742
961 1 21.5288 19.3096 67.1092
963 1 27.5666 19.8101 65.6291
1033 1 33.5469 19.5747 64.8345
950 1 31.2123 16.9424 66.7636
899 1 1.18958 23.5384 66.8402
886 1 4.99253 21.4282 67.9526
901 1 7.91329 23.8715 65.3108
888 1 11.4924 21.5205 66.5319
973 1 14.7258 24.1684 68.7452
890 1 17.7344 21.4656 65.2689
975 1 21.1574 23.7057 67.6657
977 1 27.5615 24.1056 66.2439
1035 1 30.8784 21.6233 67.8148
1072 1 21.425 12.4978 78.7695
900 1 5.10122 25.7516 68.1943
902 1 11.2675 25.826 67.6172
904 1 17.4318 25.7307 65.8181
1028 1 12.9361 21.253 75.4645
770 1 34.1383 26.4728 52.7571
978 1 30.7325 26.3402 67.8647
1042 1 13.3522 25.8942 75.693
1040 1 7.2964 25.7913 77.1678
916 1 12.3374 7.98368 72.027
918 1 18.0422 7.85244 69.8178
920 1 25.2886 8.11824 68.9529
2385 1 10.094 28.0724 74.2166
927 1 2.69356 9.85938 70.9601
929 1 8.80064 10.0161 69.6343
930 1 12.442 12.6707 71.2629
932 1 18.9031 12.4343 69.9949
1003 1 22.7516 10.4508 71.4523
934 1 24.7837 12.5583 68.8881
1005 1 28.9373 10.6906 70.483
1006 1 32.1713 12.4542 72.2995
941 1 2.84528 13.908 70.9351
943 1 8.6956 15.0145 69.4876
945 1 14.8418 14.486 68.6452
946 1 18.3975 17.0972 70.2643
1017 1 22.5879 15.0659 71.4431
948 1 25.1017 17.076 69.2984
1019 1 28.7435 14.9774 70.1367
955 1 2.20034 19.1402 70.9652
957 1 8.38362 18.9307 69.431
959 1 14.9237 19.4849 68.6031
944 1 12.0978 16.6496 70.553
1031 1 22.4122 19.6456 71.449
1020 1 28.7389 18.8843 70.068
969 1 2.24353 24.0676 71.3863
971 1 8.91036 23.6758 69.7541
958 1 11.8125 21.3872 71.1334
960 1 18.6372 21.8076 69.7978
1045 1 23.1964 24.258 71.5919
962 1 25.0862 21.7536 69.1643
1047 1 28.2521 23.5966 70.7422
1038 1 1.32531 26.5804 78.364
2315 1 8.93429 28.1748 69.7047
972 1 12.3628 25.9618 71.9276
974 1 18.585 26.4067 70.1715
1105 1 34.3388 19.3394 76.0015
976 1 24.9105 26.3921 69.0491
756 1 33.8197 21.8252 52.9418
914 1 6.36732 7.37808 72.6149
2249 1 20.4616 28.3375 63.2002
1104 1 31.2071 21.6757 78.725
988 1 20.137 8.48316 74.0078
990 1 25.8022 8.37207 73.0492
992 1 32.1154 8.06207 72.2497
997 1 4.39002 10.3793 75.4285
928 1 6.57743 12.1724 72.411
999 1 9.94749 10.034 74.3647
1001 1 16.2066 10.4874 72.9652
1002 1 19.8778 12.6194 74.4336
1004 1 26.3151 12.9972 72.9424
1075 1 29.9492 10.5607 74.9756
1011 1 3.99722 14.7977 75.0013
1013 1 9.97369 14.5673 74.0143
1014 1 14.3622 16.8679 75.6867
1015 1 15.7946 14.4349 72.6532
1018 1 26.0932 17.8372 72.7969
1089 1 30.256 14.6438 75.0501
1022 1 32.3192 16.6478 72.3998
942 1 6.21496 16.9046 72.5117
1027 1 10.2214 18.618 74.3666
1029 1 15.7843 20.1529 72.9703
1016 1 18.8691 17.012 74.1477
1103 1 29.808 19.332 75.0028
1039 1 3.91963 24.0758 75.7623
956 1 5.81582 21.6487 72.3412
1041 1 9.2318 23.8656 74.2697
1043 1 16.1075 23.8309 73.1188
1030 1 19.7022 21.304 74.7973
1032 1 25.9747 21.6016 73.7377
1117 1 29.0032 23.8984 74.6172
1034 1 32.0135 21.1892 72.41
970 1 5.93562 26.2323 72.5378
1044 1 20.1374 25.9069 74.2748
1046 1 26.0497 26.3612 73.6295
2177 1 13.0147 28.3444 59.9385
1048 1 31.5921 26.6091 72.3148
982 1 1.94073 8.26986 78.1497
984 1 7.15644 7.97065 76.8434
2455 1 10.5481 27.5494 78.8779
986 1 13.4859 7.66749 75.5974
1058 1 20.9839 7.90931 79.1618
1060 1 26.9756 8.15255 77.5522
1062 1 31.2431 7.85766 78.3986
996 1 1.62889 12.5442 78.1901
998 1 7.38585 12.5334 77.273
1069 1 10.9289 10.2017 78.7668
1000 1 13.4534 12.3416 76.3577
1071 1 17.4839 10.0507 76.4971
1086 1 20.7071 17.235 78.1592
1073 1 23.7744 10.1821 76.1289
1074 1 27.3227 12.9187 77.7002
1111 1 10.96 23.3751 78.5637
1076 1 31.6366 12.3232 78.4499
1010 1 1.31976 17.1265 78.2007
1083 1 11.1495 14.708 78.4822
1085 1 17.7641 14.1037 77.0587
1087 1 23.5041 15.3503 75.929
1090 1 31.4112 17.0425 78.2225
1025 1 3.92263 19.4514 75.2547
1012 1 7.35337 17.1662 77.0909
1097 1 11.486 19.296 78.5746
1099 1 16.6134 19.4276 77.4367
853 1 32.9397 6.28163 60.5389
1101 1 23.3723 19.5898 76.1369
1088 1 26.6972 16.9117 77.453
2457 1 17.2963 27.9448 77.4319
1024 1 1.32193 21.7951 78.6232
1026 1 6.98594 21.7211 76.8708
2105 1 7.4302 27.9113 54.4743
2247 1 13.9973 27.8138 64.4104
2245 1 7.6277 28.0892 65.5691
1055 1 11.5337 5.94062 78.2802
713 1 30.6317 6.03371 51.7215
709 1 18.4784 5.76462 54.2577
634 1 4.90725 7.85762 51.0853
2317 1 15.219 28.056 68.8657
2383 1 3.81184 28.5048 75.0659
2313 1 2.53179 27.7624 70.9216
983 1 3.10402 5.71105 75.5053
707 1 11.4638 5.76191 54.7984
2183 1 31.2245 28.1933 56.0333
2323 1 33.2265 28.3353 64.5429
849 1 19.8088 5.82961 62.9471
1100 1 20.3232 21.8689 78.7483
741 1 30.2025 14.7857 51.7531