ITEM: TIMESTEP
23000
ITEM: NUMBER OF ATOMS
16000
ITEM: BOX BOUNDS pp pp pp
4.3013319412010276e-01 1.0176986680587991e+02
3.3127446956808768e+00 9.8887255304318828e+01
-1.9733808043997030e+00 1.0417338080440001e+02
ITEM: ATOMS id type x y z
16 1 5.55155 11.0252 -1.90051
22 1 19.6167 11.1969 -1.24789
11034 1 0.668009 15.2095 14.8772
365 1 2.29118 8.83018 23.6202
293 1 29.1297 4.19554 21.1463
14 1 32.3877 5.21929 -0.788773
85 1 2.59454 8.22848 0.446054
87 1 7.08379 7.07966 0.134817
89 1 12.8656 7.42799 0.594726
91 1 16.6699 7.68754 0.315278
93 1 21.4016 7.57897 0.511888
95 1 26.247 7.7043 1.44749
24 1 24.1206 10.7076 -0.291688
26 1 29.3933 10.7119 -0.520142
97 1 30.017 6.66056 2.23945
28 1 33.5143 10.5539 0.105223
99 1 2.88158 12.9536 1.14169
101 1 7.54834 13.1584 0.915499
103 1 12.3952 13.5199 0.619553
105 1 16.8799 13.0937 0.685053
5887 1 33.5871 12.9691 20.5959
107 1 21.7283 13.4882 1.67764
38 1 23.7423 15.3018 -1.03878
40 1 29.3243 15.5793 -0.568796
42 1 33.4639 15.2207 0.164472
113 1 2.46107 17.486 1.29617
115 1 7.46509 17.7901 1.41757
32 1 9.80957 16.0422 -1.63627
117 1 13.0865 17.9254 1.29033
119 1 16.7673 17.6412 0.987913
121 1 21.3628 18.0006 1.02913
223 1 29.3279 3.59409 14.4497
123 1 26.1009 17.7508 1.97249
54 1 28.3235 20.1384 -0.510567
145 1 11.7868 3.54347 6.5071
127 1 2.7582 22.3121 0.825088
147 1 16.9719 3.38519 7.13957
46 1 9.91249 19.8512 -1.89352
131 1 13.0209 21.8618 0.14922
133 1 17.4584 22.4778 0.820398
135 1 21.7603 22.3633 1.57055
52 1 24.341 19.9486 -1.50746
5861 1 33.9647 3.87401 20.917
60 1 9.02908 24.4279 -0.956127
153 1 29.4279 3.42556 8.33915
1481 1 26.5858 26.4155 1.59631
66 1 24.1118 24.6187 -1.86681
68 1 28.8721 24.3209 -1.68957
70 1 33.519 24.1291 -1.04641
5900 1 33.9904 17.6776 20.195
72 1 4.66342 5.64532 3.92228
74 1 9.92884 5.44996 2.89421
76 1 14.7061 5.39306 3.74328
78 1 19.1942 5.7871 3.80698
80 1 23.8711 6.12942 4.13841
82 1 28.0651 5.58341 5.27814
84 1 32.6702 4.59257 4.65951
12 1 27.9136 5.19035 -0.82726
86 1 5.31747 10.2198 3.8074
88 1 9.86892 9.83657 2.19872
90 1 14.6201 9.9526 2.80273
92 1 19.0333 10.433 3.47394
94 1 23.5336 9.80654 3.89018
96 1 28.2379 10.1887 4.59523
98 1 32.4856 9.18734 5.16362
100 1 5.10162 14.595 3.78462
104 1 14.7816 15.6109 3.67531
106 1 19.1205 15.2492 4.09016
109 1 26.6131 13.1512 2.37174
111 1 30.6899 12.498 2.80006
185 1 7.45978 16.8465 6.40009
102 1 10.1339 15.6538 2.75952
108 1 23.8971 15.6731 4.31889
110 1 28.425 15.0369 5.38425
125 1 30.8875 17.7 2.68732
129 1 6.78149 22.0591 1.57778
114 1 4.73654 19.8239 4.10543
116 1 10.3943 19.7824 3.51108
118 1 14.9576 19.9627 4.11087
120 1 19.4157 20.1226 4.07483
137 1 26.2038 22.4231 1.75599
122 1 23.2882 20.1179 4.65126
124 1 28.0347 19.6709 4.84278
139 1 30.9104 22.0555 1.9562
126 1 32.9453 20.3206 5.94948
128 1 3.83935 24.5823 4.26913
130 1 10.5935 23.7902 3.57925
132 1 15.1659 23.712 3.79639
134 1 19.3079 24.6461 4.57295
11021 1 0.76129 11.0625 14.1028
136 1 23.4639 24.5285 4.23386
138 1 28.7796 24.3972 5.37017
140 1 33.2406 24.4107 5.27764
1483 1 30.8819 26.5115 1.91787
20 1 14.5733 10.2921 -1.96576
142 1 5.58937 6.8447 9.12481
79 1 21.7282 3.33596 1.25637
144 1 9.6246 5.59294 9.07158
348 1 27.065 24.2757 22.9087
36 1 19.7204 15.6916 -1.43487
149 1 20.5982 4.16831 6.89603
155 1 2.37389 7.90414 6.64179
157 1 8.44765 8.22087 5.22285
156 1 5.5441 10.9847 7.99182
159 1 12.6667 8.16884 5.8172
161 1 16.6642 8.2479 6.69103
163 1 20.9728 8.05954 7.03267
165 1 25.6079 8.09593 8.18546
167 1 30.4175 8.03047 8.34655
169 1 2.51557 12.6162 6.25056
171 1 8.14543 12.8032 5.94814
173 1 12.5335 12.8238 5.8951
174 1 14.3993 15.2738 9.45203
175 1 17.3488 12.9087 6.61392
177 1 22.0287 12.6085 6.31399
179 1 25.8449 12.8226 7.61439
112 1 32.7178 16.3191 6.38712
181 1 29.7347 11.9492 7.86385
183 1 1.91511 17.6233 5.89044
170 1 5.23639 14.8403 8.88764
172 1 9.89653 14.8498 9.2664
187 1 12.3696 17.5508 5.97775
189 1 17.0122 17.6061 7.43917
191 1 21.5655 16.9831 7.09096
193 1 25.7178 17.4135 7.55258
195 1 30.094 18.1065 9.07319
197 1 1.65938 21.3657 6.97969
199 1 7.56361 22.1707 6.50497
184 1 5.10785 19.607 8.82088
186 1 9.70789 18.698 9.09209
201 1 12.1973 22.1259 7.06968
203 1 16.9035 21.8867 7.49191
205 1 21.3173 22.1971 7.99987
207 1 25.7633 22.0388 6.56367
209 1 30.3288 22.2948 8.22942
151 1 24.9712 3.93437 8.2229
1543 1 6.92948 26.606 6.01612
198 1 4.95519 24.3232 8.61868
200 1 10.3178 24.5856 9.45238
1545 1 12.9349 26.5942 6.1866
1547 1 17.2521 26.6249 7.08203
1549 1 21.935 26.7387 7.93655
1551 1 26.6186 26.6508 7.68755
1553 1 31.1699 26.9761 8.52005
211 1 2.96092 4.05425 11.4465
213 1 6.84748 3.87104 12.4353
146 1 13.693 5.37153 9.61469
215 1 11.5152 3.99302 12.5491
148 1 18.671 5.73427 10.002
150 1 23.2135 5.86827 10.8758
152 1 27.8674 5.46815 11.1197
154 1 32.1585 5.43157 11.5123
225 1 2.65954 8.76089 11.1527
227 1 7.93273 8.41305 11.7577
158 1 10.3511 10.123 9.13781
160 1 14.1684 10.7474 9.52212
229 1 11.5767 8.32245 12.5206
231 1 15.6345 7.98458 12.8713
162 1 18.5443 9.69611 9.77811
164 1 22.7499 10.4704 10.4799
166 1 27.1895 9.84029 11.0546
168 1 32.2205 10.1946 11.3879
239 1 3.20235 12.9044 11.4271
241 1 7.30836 12.9364 11.7984
176 1 19.1072 14.1738 9.9525
245 1 16.0896 12.4106 12.6965
247 1 20.4017 12.8795 13.4291
178 1 23.4532 14.9972 10.7118
180 1 27.4567 14.5101 10.8781
182 1 32.3637 14.6913 10.9109
253 1 3.06157 17.711 12.0448
255 1 7.40456 17.6195 11.9603
257 1 11.8702 17.6899 12.4571
259 1 16.3265 16.9387 12.351
267 1 3.05999 22.4602 12.7255
269 1 7.57373 22.1637 10.9449
271 1 12.214 21.4945 11.6649
188 1 14.455 19.5933 9.1955
190 1 18.9694 19.5757 10.4682
273 1 16.5383 21.8292 12.812
192 1 23.6407 19.935 10.9459
194 1 27.4095 20.6949 10.4983
196 1 31.7267 20.5219 11.3258
1611 1 2.95159 27.1602 12.1546
1613 1 7.6652 26.6312 12.2592
1615 1 12.3176 26.9367 13.0893
202 1 14.6251 25.13 10.1381
204 1 18.9748 24.3102 11.014
206 1 24.7254 24.2622 10.6136
208 1 28.5229 24.1166 11.3274
210 1 33.8259 24.4708 11.4982
350 1 31.6859 24.0981 22.9211
212 1 4.0612 6.78016 14.8063
214 1 8.68455 6.19995 15.7226
216 1 13.1089 6.13982 16.2536
217 1 15.9129 4.01146 12.8654
218 1 18.0249 6.097 16.5356
219 1 20.3152 3.45766 13.8608
1685 1 11.2288 26.5544 18.9579
220 1 21.9465 5.66782 16.8743
18 1 9.8714 10.195 -1.75463
226 1 5.25081 10.9588 15.3898
228 1 9.19771 10.561 15.4553
230 1 13.1584 10.5563 15.7385
232 1 18.0475 10.7088 16.3349
233 1 20.2556 8.20255 13.664
235 1 24.3561 7.73007 13.9303
234 1 22.6431 10.1603 16.4961
236 1 27.1703 10.5763 17.0305
237 1 30.137 8.19054 14.1365
240 1 5.34011 15.6183 14.5612
243 1 11.5794 13.2028 12.2414
242 1 9.49151 14.9645 15.2647
244 1 14.2022 15.241 15.8339
246 1 18.1345 15.4783 16.3911
249 1 25.1137 12.4249 13.3335
251 1 29.7786 12.6654 13.7479
252 1 31.7777 15.1009 17.1306
260 1 18.3994 20.281 16.3901
261 1 21.0399 17.4747 13.9791
263 1 25.7719 17.4935 13.4606
264 1 27.6554 19.7638 17.2082
265 1 29.5297 17.2793 12.9273
266 1 32.1676 19.2124 17.0368
254 1 4.64129 19.7119 15.1521
256 1 9.24061 20.4723 15.1553
258 1 13.8478 19.4805 15.5544
275 1 20.4826 22.1741 13.7227
277 1 25.312 21.4189 14.1112
279 1 29.9307 22.64 14.9749
268 1 4.62603 24.7742 15.2107
270 1 9.59844 24.4654 15.855
272 1 14.3882 24.7061 16.0823
1617 1 16.399 26.9219 13.1047
274 1 18.4795 24.1396 16.4047
1619 1 20.9494 26.9553 13.7288
276 1 22.9968 24.2949 17.0444
1621 1 25.445 26.3589 14.0367
1623 1 31.2177 26.4695 14.3278
281 1 2.37287 4.27538 18.1317
283 1 6.45624 4.11168 18.958
285 1 10.6094 4.23086 19.5938
287 1 15.349 4.04921 19.8813
289 1 19.9481 3.70964 20.8102
291 1 24.4499 3.94452 20.4281
222 1 27.1757 6.70009 17.4982
224 1 31.8657 5.95541 17.6014
295 1 2.25732 8.64601 17.9191
297 1 6.9874 8.66783 18.1924
299 1 10.8902 8.68214 18.51
301 1 15.2956 8.52731 19.4914
303 1 19.7446 8.40767 19.9018
305 1 24.3951 7.99117 20.0975
307 1 29.0797 8.09305 20.6082
238 1 31.4064 10.255 17.4401
309 1 2.63242 13.0548 17.7963
311 1 6.82074 13.1947 18.5828
313 1 11.5105 13.3569 19.2097
315 1 15.491 12.986 19.1541
248 1 23.0514 14.9002 16.5845
317 1 20.0887 12.6485 19.4037
319 1 24.8707 12.7673 19.6909
250 1 27.1669 15.2393 16.4604
321 1 28.9173 13.1202 20.0916
323 1 2.63824 17.7291 18.0931
325 1 6.99594 17.6728 18.509
327 1 11.5013 17.8237 18.7
329 1 15.9876 17.4169 19.4616
331 1 20.3218 17.0272 19.3466
333 1 24.9493 17.3936 20.1082
335 1 29.0793 17.3071 20.3517
337 1 2.58151 21.9699 17.5973
339 1 7.25913 22.1613 18.0516
341 1 11.9082 21.8614 18.7014
343 1 16.149 22.0092 18.9671
345 1 21.1494 21.7371 19.6974
262 1 23.0482 19.5978 16.6425
347 1 25.0572 21.8612 20.1033
349 1 29.963 21.9124 19.8027
1681 1 1.89958 26.8412 18.4427
71 1 3.47021 3.53561 0.96032
1687 1 15.9426 26.6203 19.1141
1689 1 20.6754 27.0186 19.7349
143 1 7.73782 3.82238 6.16588
278 1 27.2282 24.3981 17.181
280 1 32.4453 24.6256 18.55
351 1 2.4255 4.0214 22.8607
282 1 4.79714 6.87375 21.0477
284 1 8.40349 7.02943 22.1434
286 1 12.9913 6.59275 23.1091
288 1 17.226 6.51571 23.456
290 1 21.8451 6.27035 23.561
1683 1 6.52004 26.9431 18.205
292 1 26.6502 6.06651 23.7511
5874 1 33.746 8.2645 20.8888
1479 1 21.932 27.1027 1.56367
58 1 4.4244 24.3497 -1.9313
296 1 4.72648 11.4014 21.44
298 1 8.79465 10.9876 22.1523
302 1 17.9317 10.6391 23.5345
304 1 21.8094 10.9573 22.9441
306 1 26.6154 10.7417 23.3632
308 1 31.2294 10.2862 23.2515
1473 1 6.72633 26.7135 1.44468
312 1 8.89416 15.4574 22.0069
300 1 13.4016 11.2752 22.879
316 1 18.2087 14.9538 22.8862
318 1 22.7805 14.9662 23.0858
320 1 27.0048 14.6299 23.3419
322 1 31.5926 15.0367 23.1937
1475 1 12.9711 26.4392 0.596084
310 1 4.46408 16.1621 20.9871
314 1 13.6194 15.8951 22.2029
334 1 26.7631 19.2888 23.6848
407 1 2.44253 22.0171 24.4246
324 1 4.29393 20.4074 21.6481
326 1 9.10329 20.1984 21.8115
328 1 13.9049 19.6317 21.79
330 1 18.4197 19.9599 22.3116
332 1 22.8104 19.7659 23.447
336 1 32.0001 19.6964 23.461
346 1 23.0941 25.0008 23.0145
338 1 4.28883 24.337 20.671
340 1 9.09124 24.0117 21.7346
342 1 13.7482 24.5807 22.0485
344 1 18.4032 24.6138 22.1656
355 1 10.8903 3.43909 24.0779
56 1 33.1612 19.7591 -0.46815
10852 1 0.599554 20.4367 -1.66254
1693 1 29.931 27.1088 20.2362
141 1 3.17396 4.37843 7.20986
221 1 24.8053 3.86056 14.1389
379 1 1.42309 13.5584 23.9909
7161 1 34.0754 27.1659 20.8221
1751 1 1.18177 26.0187 24.1838
5809 1 33.9849 7.68297 14.1914
77 1 16.6642 3.3258 0.831613
393 1 2.13461 17.3079 24.0795
10878 1 0.7093 5.66723 3.86069
1691 1 25.3423 26.4777 20.0802
5835 1 33.9661 17.6001 14.1669
1477 1 17.1681 26.599 0.973553
409 1 6.42163 21.7398 24.2775
44 1 5.25415 19.7171 -1.93439
352 1 3.90607 5.68276 26.7105
354 1 8.65196 5.86005 26.623
356 1 13.5031 5.08182 27.6063
358 1 18.0885 4.25302 27.9032
360 1 21.954 4.9602 28.1986
366 1 4.34118 11.6425 26.5941
367 1 6.05596 8.66313 25.0898
369 1 11.2836 9.19757 25.7992
368 1 7.96927 11.6221 28.1949
371 1 15.2188 8.89942 26.6605
373 1 19.4808 8.22523 26.7051
375 1 24.1054 8.72754 26.244
377 1 28.7041 8.39934 26.9618
656 1 29.5002 10.3875 50.5424
381 1 7.33301 13.2895 24.8137
383 1 11.2282 13.3045 25.4861
385 1 15.2205 13.5689 26.086
387 1 20.0124 12.8467 26.297
389 1 24.4162 12.7811 26.5647
391 1 29.3495 12.5663 26.6705
380 1 4.66005 15.4446 27.6002
573 1 29.9348 3.68214 43.1635
397 1 11.2213 18.1278 25.2509
399 1 15.3421 17.5862 25.761
401 1 20.1838 17.708 25.6911
403 1 24.975 17.4609 26.5757
405 1 29.7027 17.0882 26.5602
5965 1 33.8155 17.4466 27.0987
394 1 4.18098 19.5484 27.932
643 1 30.1041 3.59199 47.8651
396 1 8.39375 19.6161 27.9274
411 1 11.7161 21.8717 25.117
398 1 12.9864 19.9313 28.9222
413 1 15.4964 22.3546 25.0027
415 1 20.3076 22.3693 25.7571
417 1 24.8801 21.9909 26.4465
419 1 29.1928 22.0446 26.3865
5978 1 33.6419 21.9198 26.5306
408 1 4.44075 24.011 27.1702
7226 1 33.3991 26.5499 26.3776
410 1 8.92568 24.4427 27.5707
569 1 17.8958 3.83812 43.4034
1757 1 16.3258 26.5725 24.8401
412 1 13.5329 24.6762 27.868
547 1 0.504209 22.2287 34.5751
416 1 23.0988 24.9229 28.2655
1761 1 25.0463 26.8529 25.7278
1763 1 29.5012 26.6029 26.1557
1753 1 6.33378 26.5716 24.9393
698 1 28.3314 24.4886 50.1635
505 1 0.582715 8.59744 35.3645
362 1 26.4916 5.20935 28.1094
364 1 31.1067 4.9244 28.845
435 1 2.29775 8.96909 29.7488
437 1 6.12571 8.42507 29.7449
439 1 10.5816 8.17761 30.1623
441 1 15.384 8.11113 31.5827
372 1 17.1831 10.9541 29.3666
443 1 19.8381 7.66436 31.2375
445 1 24.5442 7.35209 31.3703
447 1 29.3193 7.22184 31.4326
376 1 26.5493 10.3782 29.7984
378 1 31.2207 10.2483 30.327
449 1 1.96921 12.9209 30.3266
451 1 5.88051 13.7215 30.8695
453 1 10.0995 13.6631 31.3787
370 1 13.0597 11.127 29.4516
455 1 15.6057 13.7205 32.4699
374 1 21.8622 11.0349 29.5756
457 1 19.4175 13.515 32.5773
463 1 1.55156 17.5296 30.6612
465 1 6.13117 18.5631 31.0453
382 1 9.34719 16.1312 28.4221
467 1 10.8278 17.9522 31.7264
384 1 13.5007 15.4373 28.8224
386 1 18.1198 15.8316 28.6868
469 1 15.3678 18.4457 31.6222
388 1 22.2356 15.5831 28.9854
473 1 25.0013 17.9928 32.0663
390 1 26.7315 15.1103 29.9542
392 1 31.0989 15.152 30.0052
477 1 1.34529 21.9975 30.235
479 1 5.95595 22.5753 30.5756
481 1 10.6474 22.5154 30.9378
483 1 15.3894 22.8909 31.7404
400 1 17.638 20.2498 28.7695
485 1 19.7695 22.9267 32.1487
402 1 22.2258 20.2844 29.1082
487 1 24.3275 22.0653 31.84
404 1 27.0888 19.7047 29.3677
406 1 31.4065 19.5452 29.8756
395 1 6.64399 17.6579 24.7948
431 1 24.2004 3.3798 31.5039
1823 1 6.29684 26.8317 30.4516
1969 1 18.9221 26.8982 44.4627
414 1 18.1587 24.8169 28.1639
1827 1 15.7199 27.0078 31.308
425 1 10.5566 3.74134 30.4754
418 1 27.0602 24.4648 29.3475
420 1 31.7027 24.355 29.4108
422 1 3.20253 6.33875 33.0806
1755 1 11.0334 26.4694 25.1796
493 1 5.55051 4.50891 36.7993
424 1 7.24186 6.24927 33.7679
426 1 12.8149 6.01794 33.7127
428 1 17.2633 4.96919 33.9386
430 1 22.3046 5.80564 34.8501
432 1 26.8282 5.35119 35.0707
434 1 31.4342 5.30897 34.7976
436 1 3.3108 11.5692 33.6213
423 1 5.96271 4.08135 30.083
438 1 7.67485 10.5485 33.6288
440 1 12.4036 10.3988 33.6734
442 1 17.0866 10.1328 34.2158
444 1 21.7148 9.69631 34.048
446 1 26.5964 9.79881 34.3651
491 1 1.00562 3.93044 35.8946
448 1 31.3051 9.40464 34.195
427 1 15.3589 3.73912 30.6664
523 1 10.1779 12.8793 36.8375
459 1 24.1639 13.2207 32.6688
461 1 28.9494 13.3578 32.7351
6017 1 33.735 13.284 32.8572
450 1 3.61554 16.0248 34.1884
452 1 8.31812 15.9166 34.0426
454 1 12.9626 16.3286 35.3055
456 1 17.029 16.5612 35.1785
471 1 20.1449 18.2682 32.1724
458 1 21.6575 15.5711 35.7907
475 1 28.6639 17.6624 33.1297
460 1 26.5536 15.9976 35.7922
6030 1 33.4179 17.9305 33.0154
464 1 3.89241 20.527 33.6007
466 1 7.93223 20.5426 34.4365
468 1 12.6922 20.1653 34.6318
470 1 17.5899 20.4134 35.1477
472 1 21.5969 20.1829 35.1709
474 1 25.971 20.6894 35.4611
489 1 28.9552 22.0569 32.111
476 1 31.5746 20.4063 35.54
6043 1 33.6347 22.1957 33.0052
571 1 23.2839 3.52387 42.8919
478 1 3.4799 25.0957 33.7138
480 1 8.1144 25.2423 33.9778
482 1 12.7393 24.8194 35.0885
484 1 17.4571 25.0331 35.1624
486 1 22.0089 24.7544 34.6984
488 1 26.6624 24.4202 35.3157
1833 1 28.9402 27.1226 32.4325
7291 1 33.4585 27.0216 32.7871
490 1 31.2002 24.337 35.5714
492 1 2.78547 6.59386 39.4477
495 1 10.1443 4.26945 37.0804
497 1 14.6993 3.95253 36.6626
499 1 19.7566 3.31622 37.4527
5991 1 33.1445 3.39482 31.996
700 1 33.7911 24.8686 49.1625
506 1 2.75237 11.2459 38.3943
507 1 5.10181 9.1231 36.3643
508 1 6.99802 10.7267 39.909
509 1 9.89561 8.2427 36.8227
511 1 14.6309 8.60045 37.2068
513 1 19.3392 8.08567 37.8082
515 1 23.547 8.32577 37.7837
517 1 28.9609 7.78366 37.751
520 1 2.81087 16.4854 38.4895
521 1 5.89639 13.6246 36.8425
525 1 14.6921 12.883 36.9388
524 1 12.3829 15.8922 39.6946
526 1 17.0523 14.5932 39.474
527 1 19.3482 11.9339 37.1974
529 1 24.0738 12.3936 36.9695
531 1 29.1759 12.3567 37.3118
642 1 27.8075 5.96145 49.9314
462 1 31.126 15.7907 36.2733
535 1 6.38643 18.2513 37.3753
537 1 10.2475 18.2244 37.44
539 1 14.939 17.9144 38.0583
541 1 19.47 18.0744 38.8305
543 1 24.07 18.096 38.7007
545 1 29.6142 17.8005 39.0095
534 1 2.68647 20.9131 38.2877
549 1 5.77291 23.0147 36.3042
551 1 10.3482 23.1497 37.5861
553 1 15.2063 22.5691 37.5545
555 1 19.5957 22.4347 37.8796
557 1 24.2747 22.6875 38.1673
559 1 28.7603 22.1445 38.9277
548 1 1.63082 24.5733 38.2648
692 1 10.9653 24.7764 50.9756
660 1 1.91512 16.3649 50.1363
688 1 1.13144 25.1615 50.7596
695 1 19.908 21.7069 49.3
1893 1 5.54689 26.8693 36.7311
494 1 7.25031 6.5963 39.949
563 1 4.67305 4.29228 42.2869
565 1 9.45276 4.28842 43.3166
496 1 12.3709 6.23783 39.9739
567 1 13.3667 3.77487 43.7309
498 1 16.5919 5.53229 40.3622
500 1 21.1997 5.89963 40.9905
502 1 26.8756 5.62556 40.8127
504 1 32.7139 5.6274 39.8165
577 1 4.12243 8.9494 42.2648
510 1 11.7413 11.1552 39.9897
512 1 16.3772 10.1961 40.4515
514 1 21.2436 10.5553 40.1525
585 1 24.3232 8.95847 42.5313
516 1 27.0392 10.3685 39.9042
518 1 32.2243 10.1301 39.9162
697 1 24.5387 22.4276 48.5314
522 1 7.55594 16.1446 40.3581
591 1 4.94066 13.5874 41.7342
593 1 9.74413 13.4075 42.8447
595 1 14.2726 13.5672 43.1306
597 1 19.0474 12.9714 43.3906
599 1 23.7792 13.0695 44.0548
530 1 26.5553 14.5326 40.4066
601 1 30.4531 12.6237 41.6794
532 1 33.0608 16.0601 39.6259
605 1 4.1167 18.5417 42.2195
607 1 10.5367 17.6043 43.2482
609 1 15.0502 18.2388 42.7309
611 1 19.2761 17.2863 43.5637
528 1 21.7861 14.4473 40.2602
613 1 25.2797 16.6722 43.8432
615 1 29.598 16.9152 42.9545
2043 1 30.5426 26.4293 47.0766
619 1 4.08113 23.0445 41.411
536 1 8.04687 20.7669 40.0879
538 1 12.5815 20.7826 40.7725
540 1 18.0452 20.7776 41.2014
542 1 22.0018 20.2525 41.4755
544 1 26.6903 20.3521 41.8499
629 1 30.1325 21.6494 43.3712
546 1 32.6708 20.3135 39.9563
6082 1 33.3532 12.3006 36.704
550 1 7.15598 24.9795 40.4171
552 1 13.1078 25.4368 40.5958
554 1 17.5034 25.0114 40.5442
556 1 21.6454 24.8839 41.3199
558 1 27.1512 24.6295 41.4514
560 1 31.6416 24.5651 40.2972
562 1 1.87492 6.52922 45.2543
564 1 6.31977 6.53983 45.0932
566 1 11.8884 6.7856 46.2796
568 1 15.9974 6.57511 46.3624
583 1 18.5715 8.44811 43.1213
2041 1 24.9874 27.1001 47.766
678 1 10.5855 20.0228 50.8316
570 1 22.1913 6.34584 45.664
572 1 26.7033 5.66681 45.4203
696 1 21.9089 25.3498 50.9101
574 1 33.2113 5.55473 44.5448
576 1 2.04271 11.6484 44.6333
578 1 6.77611 11.4707 45.2202
579 1 9.56058 8.15501 43.3522
581 1 13.6929 8.70404 42.7461
582 1 15.5075 11.0122 45.5977
584 1 21.1445 9.93846 46.2605
587 1 29.6308 7.77032 42.7685
586 1 27.4427 10.3213 44.5806
588 1 33.1755 10.2612 44.5463
592 1 6.55815 15.6272 44.7443
580 1 11.7542 11.1094 45.8922
596 1 16.6048 15.6399 45.7779
600 1 27.9354 14.3107 45.3096
671 1 29.9121 12.1876 47.3729
590 1 1.92955 15.8677 44.1091
606 1 7.50155 19.9991 44.5702
594 1 12.1122 14.6385 46.7423
598 1 21.342 15.5463 46.3846
685 1 30.9069 17.4265 47.3581
602 1 32.5347 14.8906 44.5463
604 1 1.76515 20.5469 44.352
608 1 12.3538 20.3029 45.4809
621 1 9.78004 23.0129 42.7748
623 1 14.5123 22.9261 43.5844
625 1 19.3071 22.6138 44.3067
610 1 17.4383 20.0094 47.0235
612 1 22.1401 19.4761 46.1294
627 1 24.0879 22.7969 44.6391
614 1 27.5561 20.1208 45.7904
616 1 32.866 19.4155 44.833
618 1 1.41286 24.9444 44.817
620 1 6.11856 25.557 44.7024
693 1 14.198 22.2175 49.2377
622 1 12.0595 25.0563 46.3247
5939 1 33.801 8.7258 26.5493
624 1 16.7263 25.0046 47.0727
626 1 21.4172 25.389 46.8965
691 1 8.94037 22.7579 47.2951
1971 1 24.549 26.749 43.0889
6004 1 33.5899 7.32748 31.8541
628 1 27.4759 24.7479 45.693
630 1 33.5236 24.5516 44.4233
676 1 6.33917 20.5471 50.7865
633 1 3.62981 5.62221 48.8754
690 1 6.29061 24.7219 50.177
635 1 9.20841 4.90229 49.2205
637 1 13.997 4.34473 50.2318
640 1 22.4931 6.34889 50.4315
639 1 18.7093 4.60478 48.318
646 1 1.51934 11.7079 50.1196
644 1 32.6146 5.626 49.9584
647 1 4.82846 9.47134 47.8462
649 1 9.23639 8.81846 47.9821
651 1 13.7167 8.95423 49.6998
653 1 18.1638 8.6974 48.6038
654 1 22.1064 10.2422 50.7106
655 1 24.9106 8.32233 47.8935
657 1 30.6387 7.6943 46.7176
658 1 33.8234 9.99899 49.2421
1825 1 11.0872 26.558 30.8834
5952 1 33.3886 12.55 26.832
661 1 3.7199 14.1013 47.4469
663 1 8.11859 12.8313 48.322
665 1 14.209 13.0619 49.4963
667 1 19.5166 12.5709 49.0131
669 1 25.2821 12.4866 48.1624
699 1 30.8214 21.9444 48.1103
675 1 4.64269 18.4822 46.867
677 1 9.16778 18.1444 47.7824
679 1 13.8228 17.6061 48.9067
684 1 27.7215 19.3395 50.3478
681 1 18.9876 17.2052 48.7332
683 1 25.6697 17.2204 47.8447
429 1 20.2201 3.85046 31.4325
672 1 33.7111 14.0711 49.1123
674 1 1.75062 20.7415 50.5804
689 1 3.60455 22.9403 47.8212
1821 1 1.63282 26.5805 30.4783
668 1 22.5606 14.6883 50.0887
501 1 24.2029 3.69237 38.6483
682 1 22.8626 19.3544 50.4575
1831 1 24.3968 26.9659 31.4366
670 1 29.0502 14.8593 49.6482
1901 1 24.3381 27.1507 38.5533
1759 1 20.2605 27.1781 25.1166
294 1 31.3658 6.34928 24.5693
703 1 3.23292 5.13371 54.0363
705 1 7.83272 4.95493 54.4864
707 1 14.2103 5.02141 54.3433
1095 1 4.77099 18.3156 77.4231
709 1 20.3822 4.23178 54.3516
711 1 24.9696 3.95868 53.417
744 1 1.47484 21.1587 56.0162
717 1 3.48161 9.90495 54.2012
636 1 11.1955 7.51632 52.2635
719 1 7.88823 9.10424 54.5246
721 1 13.9149 9.02772 54.5348
652 1 16.9483 11.4258 51.8076
723 1 20.6057 8.58877 54.0707
725 1 25.9249 8.72797 52.9568
940 1 0.660875 16.0677 71.1527
727 1 32.3387 8.7248 52.536
731 1 3.18931 13.9776 54.061
733 1 7.87727 13.9169 54.6926
898 1 0.711864 25.8694 66.4115
735 1 13.662 13.58 54.5574
737 1 19.9845 12.9553 53.5411
634 1 6.30644 7.2878 51.409
739 1 26.4925 12.662 52.8501
741 1 32.597 12.9563 52.708
745 1 3.53025 18.3994 53.9295
1119 1 33.9015 24.1875 76.0967
664 1 10.7945 15.7128 51.5842
749 1 13.8324 18.2712 53.6814
751 1 21.316 17.5885 53.4397
753 1 25.7172 16.4149 52.6875
2453 1 5.23672 26.759 77.3514
755 1 32.094 17.7253 51.6447
759 1 3.7194 23.1293 53.5176
761 1 8.53221 23.1092 53.9426
713 1 30.7997 3.39386 52.6641
763 1 14.5365 22.9751 53.4857
650 1 10.4418 11.4017 52.0202
765 1 19.9424 21.6394 53.3796
767 1 25.2042 22.6013 52.7375
754 1 28.525 19.5172 54.2044
769 1 31.7009 22.4016 51.9522
843 1 5.05812 3.79407 65.1353
2107 1 13.8454 26.9501 53.8349
1113 1 16.4501 23.0648 77.1736
662 1 6.21057 15.8576 51.2014
768 1 29.3952 24.3958 54.7814
2113 1 31.0648 26.8473 51.5431
702 1 0.476181 7.71612 56.4259
704 1 5.76183 7.12308 57.0739
706 1 10.905 7.35046 56.9179
777 1 14.0697 4.49995 58.8644
708 1 17.4357 6.84246 56.9505
779 1 21.2839 4.71026 58.6897
2111 1 25.3184 26.8821 52.5587
710 1 23.7864 6.93603 55.8498
712 1 28.4724 5.65357 56.0735
791 1 14.0076 9.10718 59.3887
793 1 20.9967 9.39896 58.7097
724 1 23.5613 11.0472 55.1083
795 1 27.6321 8.68506 58.3788
726 1 29.7341 10.438 55.0972
797 1 31.4478 8.05507 57.5041
781 1 25.831 3.3405 57.9447
718 1 5.00181 11.8609 57.0565
720 1 10.9688 11.3144 57.2011
722 1 17.4684 11.469 56.2829
807 1 20.1851 13.9803 57.8752
738 1 23.5641 15.0418 55.7522
809 1 27.263 12.78 57.5405
811 1 32.5277 12.4082 56.7559
1057 1 16.8056 3.99569 77.1017
732 1 6.30985 16.2249 57.1032
747 1 8.31542 18.373 54.2974
734 1 10.9453 16.1677 57.4219
819 1 14.5293 17.5433 59.3101
736 1 17.3273 16.1997 55.6129
821 1 20.8729 17.8395 58.1431
740 1 29.3034 14.8915 54.1628
823 1 27.8857 17.1384 57.3606
825 1 32.4376 18.1076 56.1898
666 1 15.992 15.2261 51.9289
746 1 6.1317 20.7748 57.0352
831 1 8.69007 23.1702 60.3244
748 1 10.1919 20.2291 57.381
750 1 16.8629 20.5211 55.6796
835 1 19.9628 23.0596 58.3031
752 1 23.9653 19.5796 55.5846
837 1 26.2641 22.8297 56.8984
839 1 31.9107 22.0491 56.3607
758 1 1.15341 25.6867 56.6397
760 1 5.87649 25.1547 56.9365
762 1 10.6528 25.0237 56.8384
1111 1 10.9839 22.7193 76.2631
764 1 17.0806 24.9303 55.4357
766 1 22.6809 24.2075 55.4403
1042 1 13.2843 25.2783 74.5989
2183 1 32.1432 26.8771 56.1535
773 1 3.20909 4.84437 59.9862
774 1 5.56609 7.39459 62.3489
775 1 9.27062 4.4599 59.0444
776 1 11.6556 6.61175 61.4869
778 1 17.6575 6.71393 60.8468
780 1 24.1781 6.55697 60.3492
782 1 30.1255 5.12363 60.2644
787 1 2.88749 9.28405 60.2485
789 1 7.62877 9.11071 59.6852
790 1 11.1982 11.4529 61.2864
792 1 17.6543 10.9871 61.2164
794 1 24.4677 11.2402 60.934
796 1 30.362 11.3905 60.7239
865 1 27.2838 7.96689 62.5327
801 1 2.88877 13.8951 59.4526
788 1 5.08843 11.8583 62.0545
803 1 7.73505 13.5605 59.3497
805 1 15.0742 13.0489 58.9276
806 1 17.6035 15.7136 60.9325
877 1 21.5283 13.5553 62.4128
879 1 27.3371 13.673 62.2253
881 1 33.232 13.6822 62.5429
815 1 2.82502 18.2547 59.609
802 1 4.94604 15.9203 62.171
817 1 8.46721 18.3411 60.2402
804 1 11.5516 15.7456 61.1103
808 1 24.0446 15.6484 59.5751
810 1 30.7336 15.5532 59.3626
895 1 33.0744 17.9843 61.0729
816 1 5.68645 20.8173 61.6139
818 1 11.4876 20.5806 61.1017
833 1 14.3705 22.1139 58.0861
820 1 18.009 20.2353 60.2531
822 1 24.0341 20.4875 60.1821
824 1 29.677 20.2984 58.7872
907 1 26.946 22.6935 62.0216
909 1 32.9747 22.5431 60.9483
829 1 3.57871 22.9189 59.136
830 1 5.61832 25.1553 61.7284
832 1 12.2154 25.2499 60.9079
694 1 17.4596 24.692 51.6972
834 1 17.34 25.9774 61.1987
954 1 0.805581 20.2943 70.7925
836 1 23.2531 24.8934 59.9857
838 1 29.5197 24.5458 59.4369
1044 1 19.5072 25.7266 74.3482
772 1 0.973275 6.50386 62.6493
845 1 8.5477 3.89555 63.4261
846 1 11.2637 6.71578 66.174
847 1 14.4036 4.82214 63.4224
848 1 17.7666 6.79368 65.5805
849 1 20.8165 4.14769 63.2271
850 1 24.8867 5.80952 64.8416
926 1 0.492989 11.5733 72.0926
852 1 29.3935 5.16029 64.0174
857 1 1.85328 10.1905 64.7594
859 1 8.63684 9.05752 63.3283
861 1 14.9936 9.44052 63.551
860 1 12.3317 11.3783 65.726
863 1 21.431 8.89557 63.4782
864 1 24.9719 11.2873 64.9585
867 1 31.6512 7.97598 62.2134
871 1 2.67213 13.9442 64.6016
858 1 6.43701 12.0962 66.3307
873 1 8.88232 13.7294 63.9491
875 1 15.3861 13.1891 63.4855
862 1 18.952 11.4389 65.3267
878 1 23.8637 15.9473 64.2736
866 1 29.5245 11.3891 64.5556
885 1 2.79229 18.4988 64.4141
872 1 6.3779 16.111 66.4615
887 1 8.7979 18.1358 64.1141
874 1 12.5033 15.8255 65.7965
889 1 15.0605 18.6487 63.1805
876 1 19.1798 15.4492 65.3943
891 1 20.945 18.1432 62.7408
893 1 27.0393 18.1158 61.7332
880 1 29.8875 16.2317 64.0049
965 1 33.0682 17.6518 65.8038
886 1 6.39595 20.7757 65.9489
901 1 9.26736 22.5733 64.2527
888 1 12.4507 20.6878 65.4763
890 1 18.3417 20.8408 65.3358
903 1 14.9396 23.0337 62.5734
905 1 21.4021 22.6651 62.3942
892 1 24.3601 20.4717 64.7091
894 1 30.5633 20.2529 64.1312
899 1 2.96899 22.9874 63.5712
900 1 6.82909 25.2245 65.4922
1034 1 30.3872 21.8365 73.9639
902 1 12.8739 25.4185 65.7417
904 1 18.5705 25.3623 64.8282
906 1 24.1371 25.4124 64.7
908 1 30.3616 25.047 64.0658
979 1 33.8755 22.4671 65.642
842 1 1.76899 6.24775 67.22
844 1 6.20328 7.65497 66.7512
913 1 5.09145 3.76365 69.1924
915 1 8.83829 4.6256 68.5881
917 1 14.2807 3.78453 68.4144
918 1 19.0273 6.66535 69.5881
919 1 21.3132 4.00723 67.2402
920 1 24.9685 6.31722 68.9423
922 1 30.3494 5.06237 69.1134
927 1 3.58174 9.11991 69.56
929 1 9.3489 9.20786 68.2975
931 1 15.9748 8.80618 68.1759
933 1 21.7924 8.70245 67.2635
934 1 25.4466 11.0259 69.0873
935 1 27.6138 8.05969 67.083
937 1 32.3918 8.21732 66.2516
648 1 5.90969 11.8494 51.5646
941 1 3.42832 13.3926 68.8196
943 1 10.2959 13.8649 68.3703
945 1 15.6911 13.557 68.146
947 1 22.3359 13.487 66.7233
949 1 27.1264 13.7438 66.8981
936 1 30.786 11.1909 68.3777
951 1 33.6746 12.9697 66.4687
632 1 1.0733 7.38208 51.6971
955 1 3.7721 18.2522 68.865
957 1 9.84979 18.5291 68.6888
959 1 16.2188 18.1689 67.5979
961 1 21.2141 17.8586 67.5119
948 1 24.8242 16.4418 69.5888
963 1 27.5283 18.2543 66.5034
950 1 31.0108 15.8574 68.7204
971 1 9.82042 22.9267 68.1994
960 1 18.4461 21.18 70.0182
973 1 15.1794 22.849 68.0753
975 1 21.7426 22.7371 66.8495
962 1 24.679 20.553 69.3309
977 1 27.7871 22.9359 66.5853
964 1 30.8893 20.5609 68.904
969 1 3.89779 22.9096 68.3697
972 1 12.9236 25.156 70.1518
974 1 18.966 25.0734 69.8074
1032 1 25.6775 21.2063 73.9452
976 1 25.3352 26.0386 68.9758
978 1 31.2805 25.3512 68.1668
912 1 1.48707 5.4324 71.7895
1040 1 7.33722 24.6939 75.2188
914 1 6.46448 7.26676 71.3173
985 1 9.36861 4.38163 73.3197
916 1 12.6584 6.63433 70.4901
987 1 15.8435 4.16595 72.2832
680 1 16.908 19.8662 51.8936
990 1 25.0017 5.89722 73.3828
989 1 21.5904 4.06309 71.1124
992 1 30.1889 4.23849 73.5487
999 1 9.7949 8.78947 72.7407
1001 1 16.5894 9.04708 72.1677
1003 1 22.2272 8.68407 71.6125
1005 1 27.9222 7.78294 71.7282
1007 1 32.5189 8.17056 70.9185
2103 1 3.70443 26.7678 53.235
1011 1 3.89834 13.3952 73.2271
928 1 6.9588 11.5498 71.6064
1013 1 10.1509 13.5085 72.4091
930 1 13.1566 10.5777 70.454
932 1 19.6911 11.4422 69.4767
1015 1 16.5102 13.0783 72.5627
946 1 19.365 15.3782 69.7068
1017 1 23.0814 13.2035 71.7114
1019 1 27.6429 13.9147 70.6782
1021 1 32.8922 12.8808 71.1613
1117 1 28.7238 23.9246 76.5344
1025 1 4.21527 17.9254 72.7685
942 1 7.18431 16.1418 71.2598
1027 1 10.9683 19.1539 73.1159
944 1 12.8774 16.2464 70.3225
1029 1 16.7828 17.1982 72.1248
1031 1 21.9648 19.3108 71.9431
1033 1 28.1832 18.5172 71.253
1035 1 32.9703 19.3788 72.1004
1115 1 22.9765 23.0419 76.1378
956 1 7.34632 20.6676 70.4911
958 1 13.6785 20.43 70.7263
1043 1 16.0026 22.8105 72.7126
1045 1 22.1479 23.4739 71.5395
968 1 0.841268 24.9669 70.051
1039 1 4.35892 22.7405 72.4559
970 1 7.1735 25.0565 71.2098
1041 1 10.2924 23.3704 72.5715
1046 1 25.6607 25.9215 73.4299
1047 1 27.3994 23.2288 70.5109
1049 1 33.6912 23.508 71.578
1048 1 31.0463 25.6343 73.4154
982 1 2.45972 5.42424 75.7491
984 1 7.11706 6.64864 75.4255
1030 1 19.2889 20.3716 74.5941
986 1 14.0448 6.40205 74.8934
1038 1 2.06064 25.8996 75.1447
988 1 19.152 6.28873 74.1794
1028 1 14.7742 20.0126 75.0152
1075 1 28.718 7.91724 75.6298
997 1 3.69252 9.16175 73.8566
1069 1 10.9636 9.01282 77.1112
1000 1 13.5624 11.1626 74.5852
2387 1 15.7818 27.0409 72.1475
1073 1 22.0637 7.95908 76.2447
1002 1 19.7931 11.1338 74.1074
1004 1 25.8703 10.3879 73.6015
1077 1 32.3586 7.54416 77.2043
996 1 1.19328 11.2355 76.5278
998 1 7.80856 12.3103 75.5527
2253 1 33.2687 27.0356 61.1082
1085 1 17.1472 13.0961 76.6345
1087 1 23.2759 13.092 76.4227
1016 1 20.2138 15.5702 74.2652
1089 1 27.8207 13.6785 75.3623
1006 1 30.0029 10.6492 73.0696
1091 1 33.6698 11.8438 75.8619
1010 1 0.894935 16.0852 75.6371
1012 1 8.17304 16.268 75.7472
1097 1 11.1871 19.1646 77.4011