ITEM: TIMESTEP
203000
ITEM: NUMBER OF ATOMS
16000
ITEM: BOX BOUNDS pp pp pp
3.7998766995513478e-01 1.0182001233005046e+02
5.7243236066769327e+00 9.6475676393321493e+01
-5.2074167626768286e+00 1.0740741676267635e+02
ITEM: ATOMS id type x y z
10969 1 0.630188 17.0216 6.26296
395 1 5.59163 19.8684 22.5449
10995 1 0.518001 25.8456 6.08523
6 1 14.8478 8.3951 -4.28497
8 1 19.509 7.65992 -4.39185
10 1 24.1877 8.12172 -3.4002
12 1 28.4661 7.62885 -2.22339
14 1 33.2184 7.51973 -1.70425
85 1 3.04106 10.5051 -3.5589
87 1 7.54077 9.98679 -2.98846
10930 1 1.14172 26.1047 -0.600737
22 1 19.6901 12.2919 -3.69257
24 1 24.0574 12.5705 -3.1249
26 1 28.738 12.4665 -2.63509
28 1 33.277 12.222 -1.73534
99 1 2.94848 14.669 -3.42197
101 1 7.48512 15.1574 -3.07401
103 1 12.056 15.2047 -2.44407
113 1 3.31892 18.862 -3.49512
115 1 8.03828 19.1963 -3.27327
223 1 29.4042 5.85898 13.2788
34 1 15.1354 17.165 -4.57659
36 1 19.7463 17.0411 -4.18884
38 1 24.187 17.1817 -2.86272
40 1 28.3898 17.0212 -2.51198
42 1 33.2366 16.9825 -2.20035
127 1 3.1783 24.7236 -3.62938
129 1 7.60906 23.8698 -2.96454
48 1 15.0184 21.3217 -4.53718
131 1 12.2556 23.7216 -1.8412
50 1 19.8559 21.6403 -4.19854
52 1 24.0058 21.4779 -3.11755
54 1 28.7906 21.0882 -2.21984
56 1 33.3476 20.8857 -1.92111
1621 1 24.8595 28.3647 12.6553
147 1 15.9873 6.0035 5.18383
7096 1 33.9776 27.6792 13.8862
62 1 15.1243 25.8679 -4.38747
64 1 19.678 25.6252 -3.7992
66 1 23.9382 26.0786 -3.04027
68 1 29.0802 25.879 -2.59515
70 1 33.1314 25.7198 -2.26784
83 1 30.2076 6.36653 1.72882
72 1 5.51231 8.00016 0.638222
74 1 9.86848 8.27759 0.633208
76 1 14.0818 8.54653 1.80625
293 1 28.6517 6.06794 19.7622
10891 1 0.346108 12.9817 0.312446
13 1 31.2564 5.75944 -5.17045
86 1 4.97569 12.6947 0.253196
88 1 9.43204 12.5869 0.475267
89 1 11.7346 10.4347 -2.03128
91 1 16.9436 10.3098 -1.35019
93 1 21.1316 10.0722 -0.626331
95 1 25.7594 10.3387 0.562026
97 1 30.6203 10.3167 0.902774
10904 1 1.02155 17.3198 0.119978
100 1 5.51588 16.8692 -0.149621
102 1 9.23388 17.0625 0.802598
105 1 16.9014 14.5192 -1.26398
107 1 21.3738 14.8714 -0.291682
106 1 19.0237 17.0807 1.93666
109 1 26.2697 14.946 0.0156676
111 1 30.6219 14.8836 0.827382
117 1 12.3805 19.8591 -1.65802
119 1 16.9952 19.2203 -1.3056
121 1 21.0797 19.3488 -0.220303
123 1 25.5105 19.4729 0.184488
125 1 30.2802 19.3465 0.939403
10917 1 1.29852 21.942 -0.551044
114 1 6.11191 20.9326 -0.225055
116 1 9.78255 21.5028 0.697097
118 1 14.278 21.7897 1.90303
133 1 17.2753 23.9295 -0.890964
135 1 21.8565 23.3621 -0.23628
137 1 26.4321 23.6755 0.218939
139 1 31.089 23.5035 0.692756
5835 1 33.5571 19.4695 14.3305
128 1 5.28148 26.203 0.957074
130 1 9.36224 26.1652 0.695798
132 1 14.5026 26.312 1.37815
211 1 2.20828 5.95612 8.83066
159 1 11.5537 10.787 4.271
78 1 18.8048 7.97276 1.98272
10878 1 0.860945 8.37342 0.0603051
80 1 23.6557 7.62001 2.44893
82 1 27.8518 8.19551 3.99649
84 1 32.3258 7.69701 4.78875
155 1 3.03975 10.3843 3.12353
157 1 7.05222 10.4681 3.86037
90 1 14.2161 12.6525 1.24829
92 1 18.9251 12.4859 2.34907
94 1 23.4739 12.9123 2.94259
96 1 28.0112 12.7745 3.20648
98 1 32.4422 12.5227 4.47586
169 1 3.02953 14.6102 3.01078
171 1 7.19059 15.1416 3.75568
173 1 10.9755 14.7191 4.15179
175 1 15.6559 15.2665 4.83274
110 1 28.0033 17.2886 3.72015
112 1 31.8606 16.3356 4.04158
183 1 3.10472 19.231 2.96484
185 1 7.57807 18.9141 4.01146
104 1 14.0013 17.0956 1.36839
187 1 11.5143 19.4837 4.33983
108 1 23.4711 17.0438 3.16147
197 1 2.83493 23.8828 2.49419
199 1 7.26821 23.1238 3.83608
201 1 11.7021 23.8945 4.08372
203 1 15.9497 23.7652 4.94667
120 1 18.5445 21.5341 2.71466
122 1 23.2437 21.6984 2.60075
124 1 27.7061 21.9293 3.49839
126 1 32.8101 21.0944 4.28411
143 1 7.13979 5.69492 3.4952
346 1 21.8306 26.2156 21.6604
134 1 19.062 26.4117 2.57394
136 1 23.7721 26.5708 2.48206
138 1 28.5896 25.9341 3.80316
140 1 32.7231 25.6672 4.53683
142 1 4.51719 7.8962 6.64303
144 1 8.3076 7.80696 7.32649
146 1 13.8746 7.73112 7.69386
148 1 18.41 8.01592 8.49995
283 1 6.19583 5.83044 16.3653
11034 1 0.390298 17.2326 12.5052
10956 1 0.754813 12.9968 6.14857
156 1 4.76671 12.5373 6.79895
158 1 9.41187 12.6569 7.08317
160 1 13.9987 11.9104 8.0971
161 1 16.1104 10.4923 5.0553
163 1 20.5768 10.3788 6.10358
162 1 18.1325 12.4462 8.66436
165 1 25.3014 10.2991 6.24716
167 1 29.752 11.0277 7.18682
174 1 13.4237 17.1503 8.29316
177 1 20.5922 14.9626 5.5316
179 1 25.1904 14.9808 6.7963
181 1 29.8554 14.6506 7.14717
170 1 5.10993 17.5634 7.41262
172 1 9.77018 17.3074 7.01282
189 1 16.0918 19.1075 4.95166
191 1 20.607 19.6892 5.76186
193 1 25.4383 19.4306 5.6317
195 1 29.9681 19.0559 6.85539
184 1 4.27659 22.0884 6.67043
186 1 9.3852 21.6275 7.10604
188 1 14.0438 21.5957 7.70677
190 1 18.7579 21.5585 8.48086
205 1 21.0657 24.1164 5.49865
207 1 25.7634 24.0526 6.1226
209 1 30.4865 23.4972 7.18685
5809 1 34.0776 10.2142 13.5319
75 1 11.8667 5.8601 -1.69686
198 1 5.2222 25.8732 6.04203
200 1 9.65505 26.3185 7.30715
202 1 14.093 26.0501 7.5008
204 1 18.1625 25.9277 8.09966
330 1 17.4155 21.6638 20.7619
287 1 15.0593 5.95616 17.4704
344 1 17.6105 26.3373 20.5824
11047 1 0.545144 21.5656 12.1688
351 1 2.24388 5.56216 21.696
5731 1 34.369 5.84015 7.88518
150 1 22.9585 7.57977 8.97989
152 1 27.5617 8.65374 9.16449
154 1 32.0611 8.19864 10.273
225 1 1.8749 10.175 9.59906
227 1 6.5628 10.227 10.0666
229 1 11.149 10.3306 10.2915
231 1 15.4373 10.1605 11.2731
233 1 21.0301 10.2892 11.8195
164 1 22.8194 12.237 8.72551
166 1 27.182 13.0009 9.73484
168 1 32.1177 12.893 10.7228
239 1 2.35857 14.9368 10.1844
241 1 6.58438 14.8815 10.193
243 1 11.3334 14.9493 10.8271
245 1 16.1169 14.7832 11.2734
178 1 22.9585 17.3619 8.96203
180 1 27.6867 16.8573 10.0939
253 1 2.27951 18.7939 9.65258
255 1 6.78714 19.4943 10.6207
257 1 11.4572 19.5461 10.8214
176 1 18.2541 16.8128 8.38532
259 1 16.2356 19.9313 11.2826
261 1 20.4974 19.4699 11.6081
182 1 31.97 16.9916 10.7789
267 1 2.46804 23.8982 9.4045
269 1 6.81116 24.2239 10.0255
271 1 11.8276 23.747 10.7348
273 1 16.4254 23.8908 11.0749
275 1 20.2382 23.9761 11.9529
192 1 22.557 21.8769 9.43934
194 1 27.2002 21.2445 9.72493
196 1 31.6363 21.3201 10.9776
342 1 13.1671 26.3969 20.0314
5822 1 33.9114 14.8273 14.1209
328 1 12.9426 22.0909 20.8848
1477 1 16.5789 28.5882 -1.77032
206 1 23.1287 26.3923 9.1911
208 1 27.7426 26.0287 9.70061
210 1 31.7511 26.4133 10.3556
212 1 4.50319 7.86738 12.8115
214 1 8.75216 8.38585 13.769
216 1 12.6204 7.36039 13.5862
218 1 18.277 7.80155 14.5566
220 1 22.8727 8.07522 15.5342
7161 1 33.3987 28.2083 20.2684
145 1 11.5566 6.07671 4.39814
295 1 2.06968 10.5877 16.0139
226 1 4.76735 11.8523 12.8853
228 1 9.10594 12.706 13.3479
230 1 13.516 12.4411 14.1437
232 1 18.0966 12.249 14.6227
234 1 22.7376 12.5333 15.3248
235 1 25.0924 10.3342 12.0518
237 1 29.1941 10.3769 13.3568
309 1 2.29783 14.4451 15.8762
240 1 4.60268 17.176 13.1534
242 1 9.27622 17.4067 13.27
244 1 13.948 17.0587 14.2318
247 1 20.6237 14.6932 12.0802
249 1 24.3479 14.9224 12.8593
251 1 29.496 14.879 14.222
348 1 26.5904 26.3017 22.3159
325 1 6.53645 19.5756 16.5908
246 1 18.5877 16.6725 14.8542
248 1 22.2591 16.9729 15.7982
263 1 24.8401 19.3401 12.7577
265 1 29.2863 19.3747 13.7429
337 1 2.13426 23.9122 16.0042
254 1 4.32026 21.4129 12.9203
256 1 9.31001 21.5892 13.306
258 1 13.5006 21.521 13.9518
260 1 18.2313 21.1694 15.2552
277 1 24.6951 23.7416 12.6479
279 1 29.3018 23.6097 13.2057
5848 1 33.7797 23.7563 14.6215
268 1 4.68681 26.2148 12.7633
270 1 9.2898 26.5961 13.165
272 1 13.2378 25.9936 13.8539
274 1 17.7181 26.6637 14.4699
276 1 22.2415 25.5384 15.5662
278 1 26.7963 26.2361 16.332
282 1 3.94982 8.23097 19.0127
60 1 10.3067 25.9425 -5.00954
285 1 10.8299 6.01059 17.2058
222 1 27.0813 8.74652 16.0624
224 1 31.1429 7.84099 16.7103
296 1 4.01785 12.6754 19.668
297 1 7.23588 10.4944 16.7843
299 1 11.272 10.7433 16.9485
301 1 15.7859 9.90505 17.4144
303 1 20.4665 9.68666 18.2018
236 1 26.6775 13.3025 16.3749
307 1 29.1158 10.1465 19.4308
238 1 31.072 12.519 16.8514
310 1 4.00089 16.6547 19.1721
311 1 7.2912 14.9455 16.5107
313 1 11.7933 15.4424 17.5148
315 1 15.5847 14.6405 17.6197
317 1 20.0639 14.393 17.9519
323 1 2.40415 19.6028 15.7747
327 1 10.9826 19.5754 16.5358
329 1 15.4299 19.1756 17.4768
331 1 20.0623 18.5851 18.4899
333 1 24.3976 19.6607 19.2209
250 1 26.9036 17.424 16.1916
252 1 31.0033 16.5508 17.1112
339 1 6.65933 23.7518 16.036
341 1 11.1782 23.7887 17.2261
326 1 8.36334 22.0964 19.4186
343 1 15.1603 23.968 17.3109
262 1 21.97 21.6609 15.6793
345 1 19.5273 24.4165 18.0401
347 1 24.3039 23.6912 19.2882
264 1 26.5338 22.3981 15.9859
266 1 31.1594 21.8473 16.4892
338 1 3.87469 26.4786 19.4798
340 1 8.27844 26.5251 19.4155
1483 1 31.5182 28.0467 0.813464
5913 1 33.6843 24.1154 19.792
1623 1 29.4515 28.4587 13.2544
20 1 14.6926 13.3 -5.08734
280 1 31.562 26.0459 16.9075
334 1 26.629 21.8153 22.6318
332 1 21.7876 21.42 21.7913
284 1 8.67781 8.20271 19.763
286 1 13.3374 8.46685 20.4136
288 1 17.6774 8.12597 20.7179
290 1 21.8958 7.93011 22.0421
292 1 26.8184 7.67517 22.8395
349 1 28.9985 24.1514 19.4396
221 1 25.1247 5.631 12.5269
365 1 1.31206 10.1468 22.141
367 1 5.91969 10.7471 22.3604
298 1 8.82617 12.8905 19.3656
300 1 13.4238 12.7272 20.4825
302 1 18.0186 12.2459 20.8619
304 1 21.7632 12.5153 21.8104
305 1 24.5354 9.41303 19.9007
306 1 26.3576 12.3985 21.9489
409 1 5.67006 24.3339 22.5468
5874 1 33.1076 9.74183 20.0544
379 1 0.766034 14.856 22.3353
381 1 6.10145 15.3206 22.4191
312 1 8.48597 17.4772 19.9948
318 1 21.9651 17.508 22.0612
319 1 24.5994 15.0518 18.9489
320 1 26.302 17.073 22.5539
321 1 29.1815 14.9794 19.9436
5887 1 33.4278 14.3894 20.3271
393 1 1.29297 19.0577 22.0734
353 1 5.9251 6.03813 22.6032
314 1 13.0416 17.4122 20.6173
316 1 17.5612 17.1011 21.0834
335 1 29.0378 19.5222 19.9498
5900 1 32.9371 19.238 19.9953
324 1 3.9555 21.7416 19.252
407 1 1.56405 23.4147 21.6913
1547 1 16.1171 27.9513 5.22058
1691 1 24.3277 28.3183 18.6188
1543 1 7.92404 28.4352 3.59958
1613 1 6.40994 27.8025 9.30524
149 1 20.7254 6.12943 5.21658
79 1 21.615 5.8905 -0.305855
1541 1 2.79755 28.2647 3.23196
1545 1 11.4297 28.3054 4.36588
219 1 20.4833 5.60661 12.1084
71 1 3.40658 5.96802 -2.75116
217 1 15.9382 6.14481 10.8928
281 1 2.28804 6.09465 15.4152
215 1 11.488 5.8512 10.0069
151 1 25.2934 5.65596 6.32407
289 1 19.8459 5.89915 18.3974
308 1 30.7987 12.5616 22.7034
27 1 30.5611 9.69881 -4.73089
352 1 3.61296 8.11937 25.5676
354 1 7.57105 8.53538 25.9186
477 1 0.467337 23.9294 28.0833
643 1 29.3834 6.21509 47.3374
366 1 3.37304 12.7754 25.6873
368 1 8.10072 12.7183 25.6133
369 1 10.6526 10.6398 23.1437
371 1 15.2113 10.1064 24.0882
370 1 12.567 12.4233 26.0788
373 1 19.62 10.4624 24.8512
375 1 24.0525 10.2071 25.3866
377 1 28.1151 10.1672 25.6373
380 1 3.49134 16.8741 25.3384
382 1 7.87095 16.609 26.2586
533 1 0.342554 19.0633 34.3011
385 1 15.4792 15.3972 23.8998
384 1 12.684 16.9246 26.6277
387 1 20.1052 15.0937 24.5179
389 1 24.2984 14.6959 25.076
391 1 28.839 14.4353 26.3106
495 1 9.41676 5.81604 35.3718
397 1 10.229 20.3202 23.0215
399 1 14.9675 19.5076 23.7869
401 1 19.5516 19.4619 24.5767
403 1 24.2619 19.8305 25.082
405 1 28.5685 19.3131 25.9365
394 1 3.57653 21.3474 25.4794
411 1 10.5108 24.2733 22.8998
396 1 7.90276 22.1264 25.9669
413 1 15.2233 24.6402 23.7186
415 1 19.086 24.1213 24.4282
417 1 23.8359 23.9554 25.0494
419 1 27.9143 23.9995 26.3154
503 1 28.0252 5.77116 38.5175
408 1 3.03324 26.0525 25.3833
410 1 7.32205 25.9055 25.974
567 1 13.1907 5.9 42.9081
1833 1 27.3245 28.5084 32.346
294 1 30.6374 7.96591 23.6075
678 1 9.32246 21.581 51.293
425 1 9.75844 5.94924 30.1134
700 1 32.9542 26.3304 48.8646
1971 1 22.5721 28.2398 43.6507
356 1 12.0356 8.09322 26.8265
358 1 16.718 7.71316 27.6248
360 1 20.892 8.06647 28.0901
362 1 26.1648 7.6984 28.8408
364 1 30.7111 8.21877 29.3145
435 1 0.611402 10.1145 28.4864
437 1 4.90286 10.2927 28.8018
439 1 9.47728 10.6111 29.0106
441 1 14.3634 10.1211 29.7284
372 1 17.0809 12.9977 27.2799
374 1 21.4741 12.7363 28.4241
376 1 26.279 12.3994 28.5821
5939 1 32.664 9.81116 26.3072
378 1 29.8113 12.5967 30.4442
1761 1 23.9111 27.9852 25.3406
451 1 4.62189 14.5206 29.189
453 1 10.2406 15.1079 29.1063
455 1 14.0386 15.1933 29.7075
392 1 30.4899 17.0645 29.6873
5952 1 32.427 14.6859 26.4897
463 1 0.850061 19.4728 27.9048
465 1 5.5624 18.9324 28.5231
467 1 9.57625 19.9397 29.4142
386 1 17.2227 17.2021 27.0293
388 1 21.9703 17.0844 27.7029
390 1 26.2007 17.0255 28.3488
5965 1 32.9361 19.3444 26.1864
1969 1 17.774 28.0113 43.2516
479 1 5.19414 24.0456 29.0881
481 1 9.39784 24.0199 29.6731
398 1 12.4526 21.7421 26.1116
483 1 14.0704 24.6196 29.5596
400 1 17.1646 22.2988 27.1972
402 1 21.3518 21.6548 28.234
404 1 25.7152 21.5698 28.6746
406 1 29.7934 22.4674 29.1073
5978 1 32.5237 24.1494 27.1691
688 1 0.804286 25.904 50.3062
412 1 11.7749 25.6061 26.8593
414 1 17.24 26.7165 27.2466
416 1 21.5676 26.3473 27.7553
418 1 25.8818 26.1525 29.255
420 1 30.3766 26.4839 29.6601
336 1 31.0272 22.1655 23.2192
422 1 2.72731 8.44701 32.197
424 1 7.56608 8.27264 32.6773
426 1 11.8177 7.89304 32.6084
355 1 10.7177 5.85751 23.719
497 1 14.0473 5.73929 36.1797
436 1 2.57961 12.3502 32.0695
438 1 7.23102 12.2908 32.4272
440 1 11.8747 12.4824 32.6132
443 1 18.944 10.4809 30.7078
445 1 23.312 9.61066 31.7689
447 1 27.3226 9.86988 32.2234
6004 1 32.1195 9.72049 32.6187
452 1 7.25176 17.0443 32.1845
457 1 19.4575 15.2484 30.6576
459 1 23.0172 15.0683 31.9508
461 1 27.6192 15.2541 32.2129
6017 1 32.1396 14.5062 32.7003
450 1 2.51536 16.9225 31.6069
454 1 11.4519 17.6339 32.8271
469 1 14.4468 19.9003 29.8511
471 1 18.9688 20.1034 30.9283
473 1 23.6591 19.3637 31.2531
475 1 27.7373 19.0101 31.7095
6030 1 32.105 19.2631 32.7411
464 1 2.86928 21.5401 31.357
466 1 7.18934 21.7345 33.0231
468 1 11.886 22.2396 32.8808
470 1 16.3998 21.8113 33.5439
485 1 19.1124 24.449 30.7674
487 1 23.1939 24.0066 31.5513
489 1 27.2814 22.9969 32.1766
6043 1 32.2876 23.947 32.8448
478 1 2.56431 25.6469 32.0413
480 1 6.99932 26.1768 32.9427
482 1 11.3187 26.2334 32.6975
484 1 16.1395 26.2774 33.6053
2041 1 23.3388 28.0665 48.2127
686 1 32.9208 21.9563 48.6317
428 1 16.1679 8.38591 33.807
430 1 20.403 7.34172 34.5673
432 1 25.6564 7.84003 35.2075
434 1 29.4806 7.93244 35.5637
507 1 4.74739 10.3708 35.7886
509 1 9.56245 10.5606 36.1043
511 1 13.4714 10.0174 36.294
442 1 16.2466 12.5011 32.7475
444 1 19.9808 13.1389 34.3404
446 1 25.3385 12.5367 34.9826
448 1 29.7175 12.4723 35.2775
696 1 20.1988 25.7703 50.7455
521 1 4.5117 14.7819 35.3214
523 1 9.16981 14.6498 35.7161
525 1 13.6115 14.9101 36.0847
456 1 16.1294 17.0901 33.4799
458 1 20.3982 16.9965 34.3084
460 1 25.3778 17.3767 34.8426
462 1 30.0644 16.9301 35.161
6082 1 33.3491 14.178 37.3138
698 1 26.8527 26.2549 49.6349
535 1 4.39862 19.3732 35.1092
537 1 9.23719 19.4824 35.7334
539 1 13.4011 19.0216 36.2927
541 1 18.1875 19.7892 37.3814
6095 1 32.7607 18.9266 37.4639
633 1 3.08712 5.82064 47.9136
549 1 4.61586 24.0032 34.9451
551 1 9.08576 23.4453 35.9527
553 1 13.5445 23.7701 36.2741
555 1 17.9185 23.9898 37.3991
472 1 20.7326 21.4269 34.8701
474 1 25.3134 21.2959 35.1637
476 1 30.0781 21.4523 35.9508
684 1 26.6024 21.529 49.8179
429 1 18.6252 6.07507 30.749
486 1 20.1444 26.3291 34.1455
488 1 25.6241 26.1643 35.0007
490 1 30.2717 26.2033 35.1758
492 1 2.21112 7.68108 37.7436
494 1 6.73612 7.97225 38.6916
496 1 11.3653 8.02725 39.2384
498 1 15.7467 8.28324 39.9745
350 1 30.8918 26.0192 23.2829
504 1 30.967 8.42922 40.486
506 1 1.80277 12.4504 38.4837
508 1 6.38924 13.2977 39.108
510 1 11.0067 12.6642 39.28
512 1 15.3969 12.289 39.6989
513 1 18.5207 10.3897 36.8428
514 1 19.8898 12.662 40.5002
515 1 22.368 10.3938 37.6766
517 1 27.1288 10.4716 38.732
6069 1 33.536 10.2408 36.9037
518 1 30.86 12.3846 40.2019
520 1 2.14977 17.045 38.5741
527 1 18.1965 15.2296 37.1389
529 1 22.8288 14.2478 37.3003
531 1 27.5084 14.6751 38.0244
532 1 30.3826 16.8991 39.9151
522 1 6.64078 17.703 38.1224
524 1 10.9118 16.8394 39.3082
526 1 15.7454 16.9981 39.6113
543 1 22.6457 18.9931 38.1305
545 1 27.7793 19.4781 38.4078
534 1 1.77262 21.857 37.9706
536 1 6.88666 21.5064 38.7555
538 1 10.6376 21.3311 39.8775
540 1 15.3631 21.2935 39.9943
542 1 21.163 22.0568 40.4037
557 1 22.5767 24.143 37.578
559 1 27.2445 24.0754 38.2427
6108 1 33.9068 23.6592 37.1913
546 1 31.3899 22.227 39.5217
548 1 2.30659 26.353 37.8495
550 1 7.0038 26.1107 38.792
552 1 11.118 26.6425 38.9963
554 1 15.6209 26.2695 39.5663
556 1 20.2453 26.5079 39.7391
569 1 17.6847 5.92685 43.2219
2033 1 4.09773 28.3006 47.9373
560 1 30.81 25.9973 39.2461
383 1 10.7065 14.6396 23.1051
637 1 12.461 5.8705 49.2641
697 1 23.1896 24.0773 47.4977
499 1 18.0026 5.6303 37.1401
500 1 20.2377 7.95321 40.2526
502 1 24.5869 8.00724 40.9809
577 1 4.069 9.93518 41.3351
579 1 8.69074 10.2649 42.248
581 1 13.0065 10.3929 42.9955
583 1 17.659 10.2097 43.5004
585 1 22.3433 10.6407 44.2753
516 1 24.5354 12.5296 40.6559
587 1 28.0669 9.86835 42.8198
423 1 5.37748 5.91119 29.2487
591 1 4.18714 15.2067 41.5956
593 1 8.59551 14.9161 42.5245
595 1 13.6338 15.2227 42.4174
597 1 17.2327 14.9925 43.5731
530 1 24.962 16.8295 40.6162
601 1 28.1013 14.5702 42.81
605 1 3.67003 19.2879 41.4295
607 1 7.77498 18.7603 42.2636
609 1 13.0051 19.2281 42.6919
611 1 17.7054 19.4264 42.5169
528 1 20.2662 16.5988 40.2304
615 1 28.3023 19.1978 42.961
619 1 4.11617 24.0487 41.0999
621 1 8.8151 23.888 42.1278
623 1 13.0062 24.1276 42.8782
625 1 17.5818 23.8934 43.0236
627 1 22.0311 24.0382 43.5307
544 1 24.9036 21.8469 41.1095
629 1 28.8223 23.4793 42.8782
616 1 31.8853 21.6126 44.2017
648 1 5.31554 12.8276 50.7415
695 1 17.0702 23.5926 49.2875
674 1 0.963613 21.5629 50.7079
558 1 24.2898 25.572 40.6831
693 1 12.3583 23.9896 48.5318
493 1 4.99571 5.92566 35.5742
562 1 1.62444 8.42121 44.1475
564 1 6.26295 7.89619 45.1631
566 1 10.6222 8.03782 45.7831
568 1 14.7587 7.97778 46.231
570 1 19.4033 8.10213 47.0684
572 1 25.7072 7.84949 45.5084
574 1 31.9646 8.10684 44.5155
576 1 1.47314 12.8209 44.1843
578 1 5.83758 12.505 45.2602
580 1 10.8911 12.6883 45.4576
582 1 14.9735 12.6985 46.7955
584 1 19.3879 12.666 46.9797
586 1 25.2928 12.5429 46.0241
657 1 29.5944 10.168 47.1513
588 1 31.855 12.5011 44.4032
661 1 3.49868 14.7744 47.7695
592 1 5.38065 17.0775 45.3059
596 1 15.3729 16.9521 46.3458
599 1 22.4569 14.981 44.0704
598 1 20.0662 17.3908 46.1212
671 1 28.9487 14.9008 47.3045
602 1 31.6092 17.2192 44.4472
590 1 1.14558 17.4814 43.8173
594 1 10.7016 16.768 45.5788
613 1 22.2793 19.5364 42.882
600 1 25.3809 17.1109 45.6676
685 1 29.1778 19.4887 47.5919
604 1 1.75814 21.4114 44.3251
606 1 5.59092 21.7784 44.837
608 1 10.0336 21.9663 45.7909
610 1 14.9015 21.6424 46.2778
612 1 19.5645 21.3211 46.2556
614 1 25.4234 21.5772 45.5781
699 1 29.1181 24.1865 47.0103
618 1 1.52686 26.2617 43.8452
620 1 6.15293 26.3724 44.7777
622 1 10.7314 26.3125 45.5761
624 1 15.0269 26.3563 46.1901
626 1 19.6142 25.7505 46.158
628 1 25.8268 26.1511 44.9611
691 1 7.74368 24.0699 48.6234
630 1 31.8987 26.1798 45.0881
632 1 1.24749 8.80642 50.9827
571 1 22.0921 5.81997 43.9947
573 1 28.1185 5.87727 43.0578
683 1 23.326 19.6595 48.4226
357 1 14.7655 5.87725 23.7915
642 1 26.6716 7.71308 50.006
644 1 33.5057 8.15108 48.6381
647 1 3.28475 10.2608 47.8243
646 1 0.595631 13.1184 50.4723
689 1 3.12067 23.9996 47.7475
649 1 8.11707 10.1393 48.0786
651 1 12.521 10.3941 49.5064
653 1 16.9289 9.90687 49.5963
655 1 22.986 10.3485 48.5378
656 1 26.8297 12.0417 50.2031
658 1 33.1503 12.8272 48.4382
670 1 26.3531 16.6918 50.2198
663 1 8.55094 14.693 48.024
665 1 13.0435 15.234 49.0686
667 1 17.2858 14.9039 50.2475
669 1 23.0922 14.9762 48.6126
672 1 32.775 17.177 48.8166
660 1 1.08251 16.8616 50.2454
675 1 3.24027 19.3113 48.1557
677 1 7.99169 19.4218 48.341
679 1 12.8568 19.652 48.8007
681 1 17.3185 18.7989 49.5345
7356 1 34.2506 28.4372 36.9452
427 1 14.2385 5.90077 30.3001
359 1 19.1764 5.87801 24.3244
501 1 22.6054 5.76096 37.0953
2039 1 16.9547 28.2592 49.2426
7421 1 33.593 28.3244 41.4427
1903 1 27.3829 28.3547 38.2652
7226 1 32.7643 28.1002 26.6238
322 1 31.0296 17.2094 23.4882
636 1 10.1287 8.67527 51.9129
638 1 14.5225 7.9491 52.9412
917 1 14.8226 6.06202 69.0816
714 1 33.9854 8.48981 53.2407
758 1 0.649255 26.4785 56.7638
717 1 3.14602 11.0701 53.9474
650 1 9.97012 12.8427 51.3645
652 1 15.1023 12.6558 52.5725
723 1 18.1168 10.4288 53.6946
654 1 20.2682 12.6356 51.2133
725 1 24.2432 10.2308 52.9519
727 1 30.4162 10.1318 51.6722
640 1 20.7076 7.59724 51.4638
731 1 2.66146 14.8535 53.5439
737 1 18.153 15.1002 54.8359
739 1 24.4245 14.6652 53.3521
741 1 30.3679 14.6374 51.8922
1086 1 20.8073 17.0026 78.747
745 1 3.18545 19.4775 53.4175
747 1 7.34135 19.5809 54.8771
664 1 9.98414 17.4301 51.6605
666 1 14.6845 17.363 53.0607
751 1 17.7481 19.326 54.2875
668 1 20.8461 17.2678 51.5869
753 1 24.6662 19.5156 53.0584
740 1 27.8596 17.4181 54.6437
1059 1 23.2763 5.92878 76.0172
759 1 2.70785 23.9258 54.3336
761 1 7.47713 23.6929 54.1966
968 1 0.569059 26.2113 73.7903
680 1 14.9134 22.0452 51.9987
765 1 18.3616 24.3539 53.7235
2457 1 17.48 27.8472 77.0598
767 1 24.1335 23.6339 52.1207
754 1 27.9279 21.7318 54.4287
769 1 30.4805 23.8237 51.4635
1105 1 34.0324 19.3073 75.1759
692 1 9.64626 26.3939 52.3019
694 1 13.564 26.2864 52.1458
768 1 27.1928 25.7729 54.2359
770 1 33.7232 26.2039 53.4107
996 1 1.37431 12.4127 78.2178
704 1 4.64923 8.25032 57.3312
706 1 9.29144 7.87906 57.6925
708 1 15.8994 8.08617 57.2998
710 1 21.4987 8.17658 56.1282
919 1 21.4481 5.96808 67.5911
712 1 28.2011 8.26584 54.3928
719 1 7.86619 10.243 54.7952
718 1 5.04641 12.9736 57.2197
720 1 9.3652 12.5729 58.6219
721 1 12.3909 10.3126 55.4592
722 1 16.1365 12.6024 57.0958
724 1 21.6447 12.6678 55.7045
795 1 25.4197 10.5642 57.603
726 1 28.247 12.1508 54.3632
797 1 31.706 10.6694 56.0983
733 1 7.39574 14.8906 54.4861
735 1 12.0673 13.9732 54.8889
807 1 19.0236 15.2027 58.7516
809 1 25.3378 15.1113 57.3418
811 1 31.9857 15.433 56.3546
732 1 5.0146 17.6475 57.4656
749 1 12.1663 19.7362 55.268
734 1 10.068 17.0769 57.7313
736 1 14.7746 16.9496 56.8791
738 1 21.5709 17.138 55.5596
823 1 25.4861 19.9676 57.8059
825 1 31.4375 19.5546 56.4911
690 1 5.11945 26.0262 51.6872
746 1 4.63255 21.6154 57.0747
750 1 14.9323 22.4641 56.3832
752 1 21.8605 21.5647 55.4248
837 1 25.6901 24.2706 57.4283
839 1 31.4186 23.9922 56.611
760 1 4.64393 26.2177 56.9049
763 1 11.8644 24.3681 55.9908
764 1 15.5644 26.9258 56.5653
766 1 21.8921 26.2214 55.1599
634 1 5.55183 8.08977 51.2388
2183 1 31.4471 28.2059 56.3001
1091 1 33.9352 14.5599 75.6909
2455 1 12.2268 28.4985 78.3209
730 1 1.10119 17.5005 57.1737
778 1 16.7608 8.04455 61.617
780 1 22.9663 8.42702 60.388
782 1 29.1154 8.0788 58.8992
787 1 2.20026 10.255 59.8034
789 1 6.89846 10.4155 60.6554
791 1 12.8779 10.2198 60.0333
793 1 19.1935 10.5884 58.6896
792 1 16.5011 12.6109 61.5276
794 1 22.6808 12.9719 60.3381
796 1 28.882 12.56 58.7684
867 1 32.8617 10.5626 60.2754
801 1 2.25676 14.616 60.5387
803 1 6.87149 15.1951 60.65
805 1 12.8511 14.8565 59.5802
806 1 16.0077 17.3995 61.3027
810 1 29.0704 17.4518 58.8973
881 1 32.7237 15.1016 60.5723
815 1 2.16343 19.0497 60.5193
817 1 6.89374 19.5879 60.3494
819 1 12.6859 20.0573 59.7134
821 1 18.8665 19.7187 58.6462
808 1 22.9647 17.7558 59.8403
895 1 33.002 19.4405 60.5138
829 1 2.38163 23.9658 60.4361
831 1 6.44428 24.3007 60.3566
748 1 9.19496 22.0079 58.3865
833 1 12.8853 24.8087 59.8058
820 1 16.0021 22.1148 60.4296
835 1 19.0755 23.9251 58.1615
822 1 22.6624 21.6701 59.7958
824 1 28.6067 22.0644 59.5585
909 1 32.5783 23.9314 60.8586
2111 1 24.1946 27.8081 52.4113
762 1 8.99412 26.1304 58.0237
834 1 16.6231 26.6736 60.9621
836 1 22.0618 26.0646 59.9712
838 1 28.7877 25.8346 58.6734
983 1 3.43076 6.21892 75.197
774 1 4.04142 8.02972 63.5022
776 1 10.6555 7.85989 62.1061
781 1 25.2847 5.82582 57.1529
850 1 24.174 8.27249 64.4733
852 1 29.8899 7.3589 63.7203
788 1 4.11329 12.7505 63.3813
790 1 10.0664 12.4546 62.5263
861 1 14.0064 10.222 63.8231
863 1 20.3503 10.5213 62.9236
865 1 27.264 9.83638 61.8928
864 1 23.8267 12.9765 64.912
866 1 30.0816 12.4095 63.3184
937 1 33.4397 10.2522 65.1457
875 1 13.6078 14.8899 64.3118
877 1 20.3583 15.1727 62.881
879 1 26.5276 15.3692 61.8595
878 1 24.2371 17.3949 64.4308
880 1 29.9872 16.8244 63.2134
951 1 33.5217 14.7566 65.0023
802 1 4.03085 17.1676 64.0383
804 1 10.1117 17.2949 62.5313
889 1 14.0282 19.3583 64.1801
891 1 19.7865 19.6087 62.5302
893 1 26.6468 19.4902 61.191
1033 1 33.4839 19.2716 65.5915
816 1 4.47151 21.7437 63.771
818 1 10.5831 21.7392 62.4757
903 1 14.181 24.0505 63.6622
905 1 20.2404 24.1766 62.7457
892 1 24.0958 21.7209 64.1971
907 1 25.909 24.2311 61.7573
894 1 30.4735 20.8938 63.6736
964 1 33.922 23.852 65.2912
830 1 4.64771 26.5813 63.7178
832 1 10.1592 26.4266 62.2096
783 1 31.5154 6.14115 56.0205
940 1 0.501019 16.9108 74.0443
906 1 23.5241 26.0489 64.4448
1115 1 23.617 23.7531 75.8574
908 1 30.0714 25.5244 63.4635
1042 1 13.6258 25.9931 75.5574
844 1 5.60455 8.17129 67.9407
846 1 11.7371 7.84681 66.6289
848 1 17.5585 7.80685 65.7915
922 1 31.3233 8.05041 67.9143
857 1 1.85497 10.5807 66.5231
859 1 7.76284 10.0878 65.1966
858 1 5.23722 12.8307 68.1092
860 1 11.2016 12.7289 66.6002
931 1 15.1727 10.6103 68.1306
862 1 17.6672 12.9439 66.0704
933 1 21.0691 10.6514 67.4009
935 1 27.6963 10.6182 66.5134
936 1 31.5889 12.8127 67.7958
871 1 1.6063 15.3211 66.3268
872 1 5.30415 17.7165 68.0529
873 1 7.06879 14.8272 65.1746
945 1 15.2598 15.081 68.6635
947 1 20.7118 15.2904 67.2169
949 1 28.0309 15.0273 66.1505
885 1 1.2601 19.7194 66.5509
887 1 8.02333 19.6491 64.8248
874 1 11.5012 17.4336 67.1069
876 1 17.1152 17.3332 65.409
961 1 20.8586 20.0633 66.4942
963 1 27.4559 19.6579 65.8476
950 1 30.9423 17.3618 67.9155
899 1 2.43562 24.0008 66.9817
901 1 8.17464 24.0432 65.5769
886 1 5.18505 21.6478 68.1949
888 1 11.1509 22.0606 66.9215
973 1 15.2056 24.2424 68.4911
890 1 17.4948 22.236 65.6478
975 1 21.9531 23.7306 67.169
977 1 27.6286 23.8437 66.1804
1035 1 31.2822 21.7192 68.1321
900 1 5.54499 26.3377 67.5922
902 1 11.7651 26.4824 66.6494
756 1 33.6917 21.5453 53.781
904 1 16.7858 26.4481 65.3902
921 1 27.9424 6.08594 66.7038
978 1 31.3135 25.8104 67.302
916 1 12.5615 8.06152 71.27
918 1 18.433 7.98491 70.3881
920 1 24.9662 8.36712 69.0872
992 1 32.3035 8.22434 72.1299
927 1 2.84095 10.0792 70.9497
929 1 8.58083 10.0561 69.4866
930 1 12.0485 12.6863 71.0983
932 1 18.6719 12.582 70.5183
1003 1 22.2125 9.85825 72.3002
934 1 24.2139 12.377 69.0393
1005 1 28.4677 11.0206 70.5289
1006 1 32.1375 12.867 72.5352
941 1 3.2121 15.7337 71.6172
943 1 8.51941 15.3635 69.5293
1017 1 22.3758 14.8344 71.2479
1019 1 28.6752 15.0286 70.359
1118 1 31.5673 25.7833 78.9118
955 1 2.50186 19.6579 71.1687
957 1 9.14228 19.7081 69.2564
959 1 14.958 19.9055 68.786
944 1 12.354 17.2784 71.7456
946 1 18.4514 17.0613 69.9528
1031 1 22.6649 19.1161 71.6512
948 1 24.865 16.8548 68.67
1020 1 28.1584 19.7816 70.2023
969 1 2.78766 23.9929 71.4647
971 1 9.09023 24.4283 69.8761
958 1 12.1856 22.2615 71.5431
960 1 18.4222 21.8843 69.5314
962 1 24.5456 21.5963 69.0685
1047 1 28.8226 24.3359 70.8784
1034 1 32.3476 21.7403 72.5325
991 1 28.2691 6.04569 71.0798
972 1 12.8504 26.6939 71.2948
1040 1 7.59746 26.0499 77.009
974 1 19.2723 26.1586 70.6304
1100 1 21.2775 21.778 78.7755
976 1 25.6048 26.3466 68.6673
1061 1 29.4989 6.21672 75.4025
1048 1 32.7181 26.3456 72.2829
1069 1 11.0025 9.82098 78.2189
845 1 7.97534 6.1226 65.2436
914 1 5.90163 7.90749 72.7485
986 1 13.1696 7.77415 75.1373
988 1 19.8168 8.31697 74.8296
990 1 26.1125 8.3695 73.4523
997 1 3.6431 10.5989 75.4815
928 1 6.21659 12.5619 72.6597
999 1 9.33283 10.2968 73.9535
1000 1 13.6283 12.3498 76.1079
1001 1 15.5217 10.6848 72.9203
1002 1 19.5045 12.3479 74.4316
1004 1 26.0104 12.5315 73.426
1075 1 29.7544 10.3873 75.1988
2391 1 28.7702 28.3969 70.4118
1011 1 3.88044 14.966 75.5848
1013 1 10.1533 14.731 74.1841
1015 1 15.7692 14.7991 72.742
1018 1 25.7794 17.2274 73.338
1089 1 29.4166 14.765 75.0342
1022 1 31.5096 17.4011 72.7052
1025 1 3.41653 19.2888 74.8415
942 1 6.57802 17.3534 72.661
1027 1 10.4678 19.3176 74.4642
1029 1 15.9964 19.8267 72.8699
1016 1 19.4008 17.0493 74.196
1103 1 29.058 19.1305 74.8463
956 1 6.5315 21.7186 72.6961
1041 1 9.90052 24.0502 73.999
1043 1 16.2854 24.0795 72.8166
1030 1 19.7968 21.7125 74.2395
1045 1 22.365 23.4831 71.9202
1032 1 25.9496 21.8446 73.5722
1117 1 29.9359 23.7617 74.8122
843 1 2.04086 5.79864 66.1888
1116 1 27.2406 26.0068 77.666
970 1 6.17432 26.6336 72.7745
987 1 16.2663 5.96659 72.9005
703 1 2.77239 5.99802 54.3889
1044 1 19.7588 26.295 74.5366
1046 1 26.255 26.1281 73.1087
1038 1 0.940312 25.8026 78.3033
2393 1 33.9277 28.2268 69.2285
982 1 1.103 7.52747 77.8799
984 1 7.30141 8.04728 77.0656
1104 1 31.0996 21.7464 78.126
1060 1 26.5099 8.49229 78.0533
1062 1 31.0246 7.89642 78.965
2463 1 34.1766 27.9292 75.7425
998 1 7.41084 12.6471 77.161
985 1 9.99074 6.1279 73.9574
1071 1 16.797 10.0682 77.3877
1072 1 20.4106 12.7262 79.0415
1073 1 23.5428 10.5748 76.8203
1074 1 26.9546 12.7626 77.8917
1076 1 31.6269 12.5296 78.7308
1010 1 1.17763 16.9661 78.4217
1012 1 7.15851 17.5476 77.3603
1083 1 10.8734 14.8224 78.7175
1014 1 13.6229 16.9706 76.0163
1085 1 16.9995 14.4223 77.7112
989 1 22.6641 6.28304 71.4134
1087 1 23.0395 14.5674 75.9746
1088 1 26.4745 17.4791 77.7101
849 1 20.405 5.69953 63.2846
1090 1 31.4489 17.2514 78.4097
1097 1 11.032 19.2529 78.9469
1099 1 17.2573 19.5792 77.4884
1101 1 23.1693 19.1254 76.1917
1102 1 27.0926 21.5565 77.9153
755 1 30.176 19.0968 51.3006
1039 1 4.05096 23.7495 75.867
1024 1 0.476449 21.9873 78.3428
1026 1 7.44112 21.7687 77.0006
1111 1 11.3445 24.1115 78.3806
1028 1 13.1114 21.4077 76.3235
1113 1 17.1271 23.6236 77.3883
2105 1 7.31584 28.3347 54.6238
1063 1 34.1439 5.94023 76.0046
2315 1 8.84246 28.4156 69.5325
705 1 7.42108 5.7757 54.9998
2243 1 1.60024 28.5486 66.6088
2459 1 23.2745 28.3179 76.0532
713 1 30.3561 6.07074 51.5932
775 1 6.46498 5.98341 59.8439
707 1 12.0023 5.79127 55.5691
2113 1 30.1217 28.39 51.9169
2321 1 27.3149 28.3719 65.8581
2389 1 22.5016 28.1945 71.4121