ITEM: TIMESTEP
265000
ITEM: NUMBER OF ATOMS
16000
ITEM: BOX BOUNDS pp pp pp
3.8881186799219591e-01 1.0181118813201260e+02
5.7993531173961230e+00 9.6400646882599048e+01
-5.2789940013833743e+00 1.0747899400138147e+02
ITEM: ATOMS id type x y z
1481 1 26.2475 27.9505 0.0604143
344 1 16.689 26.2317 21.4953
6 1 14.6219 8.33816 -4.78177
8 1 19.1662 8.15172 -4.37286
10 1 23.5892 8.2656 -3.23017
12 1 27.9471 7.96636 -3.06359
14 1 32.7121 8.09407 -2.43865
85 1 3.41968 10.2907 -3.17752
87 1 8.25942 9.96238 -1.71656
20 1 15.1341 12.6805 -5.07295
22 1 19.101 12.7676 -4.29153
24 1 23.6555 13.2065 -3.56375
26 1 28.4107 12.6161 -3.22031
28 1 32.7605 12.7007 -2.00853
99 1 3.63114 15.0586 -3.34373
101 1 7.50334 14.3312 -2.41064
103 1 12.0697 14.8933 -1.28855
42 1 32.7807 16.9614 -2.0547
113 1 3.42785 19.3179 -3.1475
115 1 8.06899 19.8165 -2.10297
1619 1 19.3207 28.2544 11.4917
117 1 12.7316 19.4942 -1.801
34 1 14.5551 17.2946 -4.79521
119 1 17.1799 19.4881 -0.826446
36 1 19.6393 17.3946 -4.43656
38 1 23.4036 17.6221 -3.59178
40 1 28.1685 17.2985 -2.58411
127 1 3.7127 24.0872 -2.81307
10956 1 0.747492 12.9259 6.14595
129 1 8.50025 24.1758 -2.79327
131 1 13.0247 24.0053 -1.97908
50 1 19.6304 21.5989 -3.95979
52 1 24.0646 22.1038 -3.34778
54 1 28.5739 21.5301 -2.7581
56 1 32.798 21.844 -2.46352
283 1 6.04223 5.92772 16.6599
62 1 15.59 26.3115 -5.03951
64 1 19.9834 26.2645 -3.87862
66 1 23.9596 26.8088 -3.94328
68 1 28.6441 25.9779 -3.48246
70 1 33.3956 25.718 -2.05012
10878 1 0.849244 8.28915 -0.364187
72 1 5.34843 8.26663 0.423161
74 1 9.62123 7.71218 1.15315
365 1 1.60835 10.6603 21.8616
10930 1 0.455209 26.2874 -0.0102463
1611 1 2.48548 28.6068 9.71078
10891 1 1.27623 12.6497 -0.370629
86 1 4.90841 12.5761 0.276138
88 1 9.49163 12.0272 1.23554
89 1 12.3198 10.5133 -1.27125
91 1 17.0386 10.1974 -1.57941
92 1 18.5086 12.3653 2.2563
93 1 21.1098 10.2494 -1.12462
95 1 25.5269 10.6391 0.0720596
97 1 30.1061 10.2131 0.280756
10904 1 0.521701 16.9479 0.133245
105 1 16.5215 14.7518 -1.30939
107 1 21.4566 14.9138 -0.762692
109 1 25.5136 14.7309 0.371322
111 1 29.9956 14.7348 1.00852
100 1 5.03882 17.2557 -0.19888
102 1 9.70567 17.1852 0.581795
104 1 14.1992 16.8308 1.66511
121 1 21.7107 20.0249 -1.08872
106 1 19.1266 17.0245 2.08629
123 1 25.7914 19.3463 0.0815764
125 1 30.5208 18.9937 0.990057
10917 1 0.898942 21.5668 0.149533
114 1 5.7602 21.9014 0.217042
116 1 10.5615 21.8325 0.393599
133 1 17.4623 24.0925 -1.63254
135 1 21.4469 24.6034 -0.804617
137 1 25.9573 23.7929 -0.794026
139 1 30.0247 23.6386 0.507921
349 1 28.5161 23.7565 19.7418
128 1 5.89898 25.995 0.623098
130 1 9.86464 25.9306 0.875929
132 1 14.5007 26.2962 1.9835
285 1 11.0381 6.09852 16.8634
41 1 31.3326 15.3497 -5.76369
76 1 14.626 8.16095 1.64551
334 1 26.7108 21.4433 22.0695
78 1 19.2328 8.47329 2.10688
80 1 23.1809 7.56982 2.80128
82 1 27.7824 7.71711 3.27075
84 1 32.2007 8.27754 3.90247
155 1 2.78013 10.4401 3.5938
157 1 7.41816 10.6107 3.84316
159 1 12.0562 10.7531 4.74314
161 1 16.0458 10.298 4.94189
163 1 20.3158 10.247 5.91935
165 1 25.0459 10.394 6.68554
96 1 27.9006 12.5894 3.67518
98 1 32.6802 12.258 3.6967
169 1 3.2721 15.067 3.32966
171 1 7.73085 15.2949 4.12118
90 1 14.1775 12.6829 2.15314
173 1 11.7232 15.151 4.19625
175 1 16.3252 14.981 5.25467
177 1 20.8083 14.4887 5.67774
94 1 23.0441 11.9864 2.74222
183 1 2.77196 19.715 3.06137
185 1 8.36183 19.9407 4.0824
187 1 11.9279 19.8112 4.5162
189 1 16.6835 19.134 4.88267
191 1 20.5094 19.3408 5.77252
108 1 23.2739 16.6908 3.23358
110 1 28.0794 16.8854 3.37719
112 1 32.3417 17.1844 4.19331
197 1 3.53052 23.6592 2.94437
199 1 7.46726 23.516 3.6318
118 1 15.159 21.5397 1.57369
201 1 12.0825 23.7144 4.37022
120 1 19.725 21.7081 2.41093
122 1 23.6061 21.4952 2.91356
124 1 28.4906 22.2479 3.80616
126 1 32.2572 21.0926 3.73364
1545 1 11.9647 28.2292 4.00847
5848 1 33.5327 23.9824 14.1676
395 1 5.01121 19.572 22.5889
134 1 18.2448 26.1942 2.3028
342 1 12.8283 26.2634 20.1778
136 1 23.4625 26.1769 2.48133
138 1 28.4704 26.5717 3.82728
140 1 32.4474 24.7934 3.69181
10969 1 0.993061 17.5527 6.09682
142 1 4.40558 8.06523 6.50005
144 1 9.22048 7.78451 6.98812
146 1 13.6862 7.75037 8.2451
148 1 18.3874 8.23753 8.79424
213 1 6.9769 5.88458 9.88001
32 1 9.98782 16.5461 -4.30254
5783 1 34.1281 23.5071 7.2428
156 1 4.82012 12.5806 6.88656
158 1 9.46372 12.4063 7.38614
160 1 14.1243 12.4556 7.75937
162 1 18.3607 12.1893 8.78226
167 1 29.7696 10.6017 6.28497
348 1 26.1301 26.3754 22.3108
176 1 18.0248 16.5919 8.71829
164 1 22.773 12.37 9.12941
179 1 25.5028 14.252 6.11855
346 1 21.2792 26.2476 21.6998
181 1 30.709 14.6736 6.86933
170 1 5.71629 17.3312 6.78847
172 1 9.63026 17.0124 7.15223
174 1 13.6533 16.9851 7.67958
193 1 25.2839 19.0347 6.27698
195 1 30.03 19.2407 7.11443
1621 1 24.7575 28.3925 12.9199
184 1 5.13191 21.3849 6.66259
186 1 9.73666 21.5239 7.4583
188 1 14.4361 21.6317 8.00289
203 1 16.8457 23.7586 4.61248
190 1 18.4393 21.686 8.1929
205 1 21.4357 24.14 5.37718
207 1 25.759 24.0596 6.09391
198 1 4.83847 25.884 6.75019
200 1 9.30924 26.0927 7.23931
202 1 14.2874 26.31 7.87153
204 1 18.6703 25.7852 7.53985
332 1 22.5451 21.798 22.0505
209 1 30.0401 24.2484 6.75304
1541 1 3.02787 28.5013 3.22693
330 1 17.2251 21.4948 20.7163
150 1 23.1375 7.79389 8.67692
5835 1 33.9377 19.7929 13.4112
152 1 27.5557 8.33498 9.92582
154 1 32.0161 8.29245 9.6053
225 1 2.28591 10.5086 9.98388
227 1 6.97099 10.3612 9.71452
229 1 11.106 9.57754 10.7692
231 1 15.8713 10.0527 11.3404
233 1 20.9634 9.97701 12.2404
166 1 27.4537 12.6045 9.79158
168 1 32.2787 12.9548 10.2498
239 1 2.45842 15.6141 9.43184
241 1 6.7356 15.086 10.0452
243 1 11.4726 14.4874 10.9566
245 1 15.7707 14.7637 11.2861
247 1 20.2538 14.5797 12.3459
249 1 24.7878 14.5495 12.5951
253 1 3.24553 19.3289 9.66963
255 1 7.32066 19.5505 10.1289
257 1 11.627 19.325 10.8994
259 1 15.6738 19.5087 10.7527
261 1 20.6123 19.2025 11.7237
178 1 22.8635 16.932 9.137
180 1 27.4292 17.2867 9.98874
182 1 32.3091 16.9626 10.3781
267 1 2.99178 24.149 9.79159
269 1 6.84201 24.1726 10.7268
271 1 11.4777 24.0775 10.8829
273 1 15.9292 24.1223 11.1011
275 1 19.941 24.0088 11.5556
192 1 22.8668 21.6995 8.96678
194 1 26.9547 21.5819 9.8628
196 1 31.6579 21.757 10.7501
10982 1 0.53941 22.0139 6.31172
5822 1 34.1624 15.0573 13.562
328 1 12.6325 21.4766 20.6704
206 1 22.9143 26.4026 9.03485
208 1 27.3875 26.249 9.66293
210 1 31.7151 25.7354 10.4468
340 1 8.20588 26.6857 20.3957
212 1 4.59372 8.17524 12.9838
214 1 8.769 7.3495 13.136
216 1 13.313 7.94266 13.5717
218 1 17.9436 7.91515 14.7306
220 1 22.6688 7.78987 15.4331
223 1 29.8095 5.84312 12.8433
295 1 2.11493 10.1977 15.3044
226 1 5.13487 12.7326 12.9326
228 1 9.0483 12.699 13.3588
230 1 13.7632 12.613 14.7177
232 1 17.6616 12.7325 15.0922
234 1 22.4029 13.0457 15.1743
235 1 25.2805 9.83743 13.6451
237 1 30.0327 10.6975 13.1152
1549 1 20.9532 28.7754 5.46192
309 1 1.8096 14.8541 15.389
246 1 18.1885 17.3083 14.2099
236 1 26.7328 12.5537 15.9269
251 1 29.6552 14.5758 12.7661
291 1 24.8061 6.16872 18.773
323 1 2.00103 19.0816 15.2161
240 1 4.50608 17.4573 12.8126
242 1 9.1378 17.3936 13.5697
244 1 13.4749 17.2996 14.2511
248 1 22.3784 16.9568 15.8327
263 1 24.6532 19.2898 12.7749
265 1 29.2817 19.1803 13.0799
250 1 26.9319 16.8538 16.0253
289 1 20.1587 5.87998 17.8392
254 1 4.61859 21.9844 12.9175
256 1 8.93708 22.3292 13.4956
258 1 13.435 21.5161 14.1522
260 1 17.3496 21.3363 14.6903
262 1 22.1158 21.5292 15.5837
277 1 24.7556 23.9307 12.3619
279 1 28.9412 24.183 13.4885
264 1 26.6107 21.4231 15.6815
281 1 1.49147 6.15145 15.3817
268 1 4.03308 26.5963 13.4694
270 1 8.42783 26.4089 13.4609
272 1 13.2719 26.4365 14.0554
274 1 17.7642 26.0778 15.1879
276 1 22.0518 25.8532 15.4074
278 1 26.8072 26.0209 16.1169
282 1 3.67056 7.71374 19.1048
293 1 29.381 5.77662 19.528
351 1 1.23164 5.90576 21.8071
5913 1 33.0127 24.0439 20.5946
222 1 28.4009 8.20911 16.4839
224 1 32.1192 8.75591 16.7414
296 1 3.84708 12.5972 18.8633
297 1 6.70915 10.1242 16.642
299 1 10.5452 9.90137 16.7556
298 1 8.40183 12.8279 19.9608
301 1 15.1432 10.5207 17.7762
303 1 19.783 10.6665 18.1221
305 1 24.1534 10.0549 18.401
307 1 29.4549 10.4382 19.2213
238 1 32.2558 12.5948 16.0446
311 1 6.33359 14.8176 16.3529
313 1 10.9459 15.2136 16.9398
315 1 15.2468 15.1679 18.1801
317 1 19.8939 15.1511 18.6583
319 1 24.6792 15.1059 18.7107
321 1 29.3639 15.0071 18.9666
310 1 3.77272 17.0129 19.1002
325 1 5.88821 19.3814 16.6503
327 1 10.2195 19.735 17.1984
329 1 14.6961 19.5934 17.348
331 1 20.464 19.0971 18.7466
333 1 24.8704 19.5389 18.8106
335 1 29.2246 19.287 18.8235
252 1 31.3471 17.1127 16.3521
337 1 1.4539 23.7482 16.0075
324 1 3.67806 21.4622 19.6548
339 1 6.16577 24.1438 16.9589
341 1 10.5401 24.1566 17.0043
343 1 15.0888 24.1911 17.7192
345 1 19.6135 23.7375 18.9402
347 1 24.1189 23.559 19.0506
266 1 31.2534 21.677 16.4054
75 1 12.0261 6.0607 -1.77846
338 1 3.47008 26.3025 19.4855
326 1 7.86495 21.8634 19.8618
280 1 31.2632 26.7213 17.0686
322 1 30.5533 17.2729 23.0079
284 1 8.3981 8.4598 19.6501
286 1 12.664 7.9361 20.3511
288 1 17.8867 8.45969 20.78
290 1 22.077 8.17673 21.2524
292 1 26.1783 8.09205 22.029
1691 1 24.1846 28.4224 18.6393
48 1 15.1864 21.5499 -5.34726
367 1 5.811 10.4532 22.8024
1543 1 7.55897 27.9096 4.36368
300 1 12.7025 12.7109 19.8923
302 1 17.0783 12.8481 21.3965
304 1 22.1429 12.8375 21.5747
306 1 26.8543 12.8209 22.2312
145 1 11.9007 5.85711 4.82326
5874 1 33.3816 10.0391 20.3216
379 1 1.86329 14.7194 21.698
381 1 5.64083 14.9371 22.5838
316 1 17.7561 17.6165 21.2886
318 1 22.3762 17.1616 22.059
320 1 26.6095 16.8595 22.2844
1471 1 3.44778 28.0241 -2.88159
5887 1 33.3914 14.4475 20.459
393 1 0.711395 19.3749 22.5473
312 1 7.99905 17.5802 20.0367
314 1 12.0331 17.1079 20.6307
5900 1 33.1743 19.7447 19.8303
407 1 0.475838 23.8155 22.3824
409 1 6.00357 23.9656 22.6323
287 1 15.6237 6.01304 17.2724
1553 1 30.2878 28.4272 6.83542
1685 1 9.83425 27.9553 17.165
1693 1 28.4958 28.3604 19.605
211 1 2.36644 6.14611 9.54339
147 1 16.2075 6.21018 5.06712
5861 1 33.8021 5.98079 20.3423
143 1 6.70869 6.34282 3.47324
353 1 5.59186 5.94542 22.5319
153 1 29.6101 6.10677 7.36733
149 1 21.0801 5.77618 5.61201
336 1 30.8866 21.4163 22.4091
411 1 10.2008 24.5935 23.1097
18 1 10.122 12.6195 -4.82627
60 1 10.9417 26.6138 -4.75407
352 1 2.84749 7.87739 25.6759
354 1 8.02473 8.11263 25.9106
571 1 22.2208 6.23655 43.9689
356 1 12.3009 8.34373 26.261
565 1 8.52101 5.86786 42.3236
435 1 0.66422 10.3582 27.7972
308 1 31.4716 11.8933 23.0841
366 1 3.11782 12.6387 25.6998
368 1 7.72922 11.9261 26.4302
371 1 14.9379 10.4097 23.4252
373 1 19.451 10.2921 24.4445
375 1 23.5217 10.8399 25.0044
377 1 28.698 10.7434 25.7765
5939 1 33.2054 10.7596 26.5879
380 1 2.80878 17.0235 25.7202
382 1 7.52462 17.3666 26.0818
383 1 10.1295 14.8606 23.3012
385 1 14.7608 14.7763 23.667
387 1 19.321 14.8571 24.8702
389 1 23.9029 14.8713 25.3793
391 1 28.0962 14.4435 25.8028
5952 1 32.7696 15.1119 26.3159
503 1 26.8451 6.36731 38.1669
6173 1 34.0808 23.8062 41.764
399 1 14.439 19.6018 23.8476
384 1 12.1687 17.1045 26.8762
401 1 19.0744 19.4618 24.5591
403 1 23.6405 19.4734 24.8665
405 1 28.2427 19.0142 25.5727
394 1 3.33157 21.5317 25.5728
369 1 10.6775 11.0149 23.0552
396 1 7.45784 22.0016 25.6974
413 1 14.5521 24.3319 23.6234
415 1 18.9456 23.2497 24.6866
417 1 23.5262 24.1066 25.0756
419 1 27.9466 23.566 25.6711
408 1 3.193 26.0783 25.4305
410 1 7.78254 26.2136 25.4661
397 1 9.7801 19.5156 23.5793
533 1 0.199224 19.2985 34.788
425 1 9.7379 6.13231 29.5168
358 1 16.6711 8.10507 27.6097
360 1 21.139 8.23419 27.9575
362 1 25.8034 8.5309 28.4028
364 1 30.2335 8.13066 29.5241
437 1 5.21937 10.3512 29.0945
439 1 9.57713 10.0291 29.8931
370 1 12.1962 13.0027 27.0655
372 1 17.0019 12.4991 27.2749
374 1 20.7613 12.8621 28.1415
376 1 25.6458 13.1466 28.6654
378 1 30.3979 12.5797 28.8243
700 1 32.6305 26.5612 48.824
449 1 0.651387 14.7672 29.2818
451 1 5.25561 14.7874 28.77
453 1 9.65107 14.5401 29.4067
455 1 14.3184 14.586 30.1418
386 1 16.7454 17.3454 27.226
390 1 25.5392 17.2163 28.757
392 1 30.1658 17.3191 29.15
674 1 1.32136 21.7207 50.8818
465 1 5.13755 19.6015 29.1026
467 1 9.62785 19.8714 29.3
469 1 14.3013 20.0589 29.8496
388 1 21.2534 17.0993 28.2242
5965 1 32.827 19.166 26.547
5926 1 33.0068 6.32926 26.4569
479 1 4.83139 24.1763 29.2383
481 1 9.5019 24.2184 29.3833
398 1 12.0183 21.8278 26.3577
400 1 16.3871 22.2104 27.4741
402 1 21.0127 21.9931 27.6686
404 1 25.6497 21.7952 28.505
406 1 30.3318 21.6747 28.6184
5978 1 32.6893 23.8409 26.2159
412 1 12.096 26.5549 26.6652
414 1 16.6639 26.6867 27.1181
416 1 20.4661 26.4697 27.7814
418 1 25.75 26.2884 28.5012
420 1 29.7402 26.1841 29.0632
363 1 28.3694 6.10757 25.6151
422 1 2.72479 8.39594 31.3762
424 1 6.71927 7.82055 32.6872
426 1 11.5296 7.9662 32.5809
428 1 16.376 8.11911 33.3742
429 1 18.9901 6.27069 30.8204
361 1 24.0547 6.20441 24.8599
436 1 2.91707 12.4574 31.25
438 1 7.31322 12.9593 32.462
440 1 11.9555 12.8152 33.0397
441 1 14.2482 10.4786 29.5896
443 1 18.4774 10.7095 30.9203
445 1 23.2528 10.5783 31.4314
447 1 28.083 10.5827 31.7399
6004 1 32.4638 10.9242 32.5561
450 1 2.57766 17.0661 31.7504
454 1 11.5631 17.3087 32.5382
457 1 18.992 14.9105 30.5379
459 1 22.9406 15.1132 31.8206
461 1 27.8492 14.906 31.8059
6017 1 31.9362 15.2933 32.4504
452 1 7.05785 17.5365 31.9133
471 1 18.5016 19.668 30.9441
473 1 23.0707 19.8829 31.4069
475 1 28.2577 19.8005 31.8494
6030 1 32.4099 19.53 31.6988
464 1 3.01851 21.8574 31.7914
466 1 7.10772 21.578 32.3837
468 1 11.847 21.945 32.9398
483 1 13.8882 24.5751 30.3489
485 1 17.9222 24.3871 30.3473
487 1 22.9079 24.0107 31.518
489 1 27.7326 23.9122 31.7934
6043 1 32.2183 23.9408 32.3537
478 1 2.29405 26.4289 31.4769
480 1 6.70048 26.0952 32.7784
482 1 11.4883 26.6475 33.0561
643 1 28.993 5.98552 47.259
668 1 21.219 17.5467 50.9212
648 1 5.61265 12.7614 50.9426
463 1 0.312806 19.4324 28.8071
497 1 13.4762 6.10583 36.606
430 1 20.4504 7.77218 34.1552
432 1 25.3845 8.63331 34.7496
434 1 29.9201 8.51404 35.5583
507 1 4.60869 10.0918 35.0226
509 1 9.39368 9.98394 35.416
511 1 13.4757 10.5308 36.029
442 1 16.1192 12.7321 33.1027
513 1 18.0391 10.5767 35.87
444 1 20.7916 12.5474 33.6768
446 1 24.6703 13.0978 34.6676
448 1 29.3779 12.6262 35.6849
521 1 4.75522 14.9474 35.0457
523 1 9.24731 14.6015 35.9496
525 1 13.8531 15.1984 36.0856
456 1 16.1831 17.4205 33.3192
458 1 20.7078 17.0735 34.3755
6082 1 33.5619 15.0278 36.645
535 1 4.11087 19.446 35.3051
537 1 9.19004 20.2787 35.2169
539 1 13.2203 19.8486 36.0071
460 1 25.1641 17.5903 34.7564
462 1 29.6221 17.1721 35.4375
6095 1 33.0759 19.1147 36.7736
549 1 4.06943 24.0704 35.1482
551 1 9.31175 24.1241 36.1341
553 1 13.9273 24.4835 36.2135
470 1 16.332 22.0042 33.1739
555 1 18.6333 24.6332 36.733
472 1 20.5959 20.9701 34.6412
474 1 25.163 22.016 34.8032
476 1 29.9177 21.5229 35.2537
350 1 30.7173 26.1077 22.7597
684 1 27.0492 22.0331 50.0845
484 1 15.203 27.0813 33.7484
486 1 20.4162 26.2679 33.8537
488 1 24.9474 26.7031 34.4359
490 1 30.0207 26.0875 34.9027
492 1 1.8012 7.46222 37.7862
494 1 6.3968 7.81844 38.4168
496 1 10.9196 8.40938 39.5302
498 1 15.7553 8.88577 39.6264
357 1 15.5271 6.51324 23.1838
500 1 20.4322 8.1964 40.2816
504 1 30.2002 8.21657 40.1618
506 1 2.13973 12.2589 38.0276
508 1 6.92989 12.393 38.4296
510 1 11.4423 12.2758 38.9285
512 1 15.9329 13.0366 39.2406
515 1 22.1927 10.5916 37.7155
514 1 20.576 12.8976 41.0677
517 1 26.9656 10.9834 38.3306
518 1 30.9366 12.759 39.5487
6069 1 33.2695 10.6735 37.3041
527 1 18.4197 14.9024 36.6019
526 1 15.6488 16.9554 39.9303
529 1 22.7466 15.2002 38.1568
528 1 19.6796 17.4999 40.4471
531 1 27.0663 14.9096 38.1463
532 1 30.764 17.1447 39.9286
520 1 2.46994 16.7022 37.927
522 1 7.22369 17.4855 38.2704
524 1 11.5749 16.5715 39.0012
541 1 17.5631 19.6424 36.9758
543 1 22.4293 19.8473 37.8194
545 1 27.0393 19.5136 38.3411
534 1 2.19866 21.9499 37.8304
619 1 4.49065 24.3898 41.9753
536 1 6.42218 22.0548 38.2346
538 1 11.2949 21.5482 38.8994
540 1 15.8507 22.2719 39.6041
542 1 19.8436 21.8065 40.4146
557 1 23.0114 23.7853 37.4867
559 1 27.0294 24.0759 37.9275
6108 1 33.4649 23.8225 37.0328
546 1 30.7963 22.2692 39.9479
548 1 1.97945 26.3941 37.3526
550 1 6.43369 26.4893 38.2284
552 1 11.0051 26.1837 39.0599
554 1 15.6333 25.9439 40.0033
556 1 20.3749 25.8667 40.0112
693 1 12.3409 23.9195 48.961
431 1 23.8278 6.3018 31.2693
560 1 30.5239 26.2805 39.7577
695 1 16.9172 23.9328 49.7206
562 1 1.10409 8.34172 44.5354
688 1 1.16717 26.2768 50.5459
567 1 13.0605 6.74813 42.3558
640 1 21.0724 8.36794 50.8617
502 1 24.1943 8.45978 41.3488
686 1 33.0543 21.9314 48.7125
569 1 17.6816 6.28003 43.1508
576 1 2.08727 12.8938 43.9812
577 1 3.72154 10.5111 41.3458
579 1 8.49357 10.4552 42.4825
581 1 13.1071 10.8893 43.1134
583 1 18.1425 10.622 43.311
585 1 22.3649 10.8997 44.9639
516 1 24.4417 12.5495 41.4326
587 1 28.3709 10.5999 42.9167
591 1 4.32236 15.4969 40.8259
593 1 9.5369 14.1576 41.6512
595 1 13.9636 14.6795 42.6017
597 1 17.8249 15.2293 42.8382
530 1 24.4235 17.3404 41.0856
601 1 28.3638 15.1006 42.5217
605 1 4.71604 19.7334 40.7611
607 1 9.14392 19.1593 42.1885
609 1 13.0364 19.2956 42.6309
611 1 17.6368 19.9051 43.0552
613 1 22.2562 19.7426 43.6095
615 1 28.0862 19.7041 42.6482
621 1 8.12415 23.7468 41.6899
623 1 12.6335 23.8548 42.7437
625 1 17.9545 23.7072 43.3099
627 1 22.4462 24.1639 43.8882
544 1 24.5516 21.8208 40.6904
629 1 27.9323 23.8617 42.7108
618 1 1.64137 26.3142 44.1461
697 1 23.5487 24.4018 47.8462
698 1 26.8258 26.6797 50.2592
558 1 24.3611 27.1365 40.9575
564 1 5.77414 8.52035 45.0285
566 1 10.5197 8.18242 45.9323
568 1 15.6843 8.22734 45.9938
570 1 19.6664 8.01636 46.9069
572 1 25.5755 8.41466 45.927
1969 1 17.6032 28.4433 42.8476
574 1 31.6557 7.94805 44.7711
647 1 3.64349 10.5134 47.6414
578 1 5.97195 12.917 44.4842
580 1 11.0467 12.7826 45.6263
584 1 20.1103 12.9056 46.9911
586 1 25.7789 12.9352 45.8388
657 1 29.438 10.3796 47.5377
588 1 31.937 12.5361 44.1779
592 1 6.31944 17.6461 44.529
582 1 15.6722 12.994 46.2782
598 1 19.5832 17.4269 46.5716
599 1 22.1765 15.2158 44.6277
600 1 25.8599 17.5556 45.5142
671 1 29.2166 15.0517 47.0902
590 1 1.8375 17.424 43.8095
594 1 11.3999 16.608 45.1293
596 1 15.1202 17.507 46.0412
685 1 29.7093 19.5006 46.9864
602 1 31.8981 17.6151 44.3046
604 1 1.53902 21.885 43.9115
689 1 3.75502 23.8373 47.5503
606 1 6.14534 21.3963 45.03
608 1 11.2781 21.4315 46.3103
610 1 15.2313 21.6881 46.2944
612 1 19.7329 21.7072 47.027
614 1 25.817 22.1257 46.0581
699 1 29.1762 24.0707 47.1137
616 1 31.6458 22.3565 44.4586
620 1 6.14486 26.3653 45.1257
622 1 10.5105 26.089 45.114
624 1 15.0665 26.1817 46.0206
626 1 19.665 26.3598 46.6334
628 1 25.9594 26.7745 45.2929
630 1 31.5818 26.2811 44.2079
632 1 1.05528 8.39733 50.3394
691 1 8.30719 24.0635 48.298
7421 1 34.1542 28.3143 41.7416
495 1 9.51103 6.09106 35.7249
359 1 19.5192 5.75773 24.4399
641 1 22.8327 5.73176 48.4668
642 1 27.5632 7.99943 49.9489
644 1 33.2942 8.11104 49.2587
646 1 0.904648 13.1304 50.3687
649 1 8.26728 10.3842 48.6863
651 1 12.7545 9.84993 48.923
653 1 17.4627 10.9569 49.3748
655 1 23.6495 10.8553 49.2248
656 1 27.2106 12.6803 50.2478
658 1 33.3204 12.4868 48.7397
661 1 3.47241 15.1945 47.4179
663 1 8.21211 14.7605 48.0687
665 1 12.9837 14.6389 48.8017
667 1 17.5898 15.6274 49.5906
669 1 23.6534 15.0055 48.3731
670 1 27.034 17.3879 49.8837
672 1 33.2766 16.8808 48.758
660 1 0.990475 17.1235 49.9541
675 1 3.84039 19.8113 47.5627
677 1 8.5461 19.4096 48.2821
679 1 13.0705 18.598 49.1493
681 1 17.1979 19.4873 49.8692
683 1 23.4589 19.7727 48.2093
499 1 18.0342 5.91701 37.2737
6056 1 32.777 6.26789 37.532
6134 1 34.1788 10.4571 41.6628
676 1 5.49862 21.3726 50.7933
421 1 0.815385 5.9005 28.1017
6160 1 34.1018 19.2211 41.2341
1825 1 9.10241 28.7004 29.717
1899 1 17.7994 28.5291 37.0187
573 1 28.0271 6.01199 42.5932
355 1 10.4541 6.35493 23.3983
1965 1 8.36609 28.4813 42.1514
1963 1 3.80824 28.3363 41.2862
1967 1 12.8449 28.6066 42.4138
1901 1 22.3653 28.286 36.922
1763 1 28.2452 28.1102 25.2499
2039 1 17.2431 27.9654 48.9697
7226 1 32.7759 28.3184 26.1671
5991 1 32.5557 6.13523 33.22
501 1 22.7975 6.25623 37.8468
563 1 3.9866 5.93712 41.4692
690 1 5.57689 26.2787 51.2054
294 1 30.5604 8.31469 23.5167
711 1 24.0802 6.48336 52.7384
705 1 7.13875 6.10381 54.1451
636 1 9.86183 7.60666 51.0194
638 1 15.1035 8.26766 52.4316
1100 1 20.7938 21.2289 79.0717
847 1 13.7821 6.28414 64.1266
714 1 33.9798 8.79197 53.7799
717 1 2.80678 10.2869 53.6825
1063 1 33.4743 5.87332 76.2173
650 1 10.6979 13.107 51.3948
652 1 14.9835 12.3983 52.1717
723 1 19.0043 10.46 53.8769
654 1 21.0629 13.1581 51.6308
725 1 24.2103 10.9901 53.1966
727 1 30.9632 10.1565 51.9235
716 1 0.867227 12.7001 56.5807
731 1 3.33716 15.4472 53.6774
733 1 7.76859 15.3501 54.2336
666 1 15.0795 16.8934 52.3712
737 1 18.5172 15.0767 54.0682
1059 1 22.9761 5.84054 76.3143
739 1 24.959 15.6527 52.7425
741 1 30.4401 14.7864 51.6987
745 1 3.38228 19.9193 54.7154
744 1 0.465313 22.1043 56.8653
747 1 7.52959 19.4276 55.9195
664 1 10.2539 17.0473 51.717
751 1 18.7455 19.3392 53.9837
753 1 24.3898 19.65 52.896
755 1 30.7284 19.53 51.7308
775 1 7.07874 6.05492 60.5002
759 1 3.0807 24.2063 54.4938
781 1 25.1759 5.82257 57.3502
761 1 7.67969 24.0993 54.8535
678 1 10.1157 21.6961 51.9805
680 1 14.8679 21.6675 52.1583
765 1 17.833 23.4088 54.0604
682 1 21.1515 22.0428 51.1271
767 1 24.3467 24.0972 52.7397
754 1 27.987 21.9366 54.767
707 1 11.7877 6.10136 54.8861
756 1 33.5956 22.1477 53.3968
692 1 10.2324 26.1447 51.416
694 1 14.713 25.827 52.2377
1061 1 29.4949 5.80764 75.6394
768 1 27.9992 26.5186 54.7551
770 1 33.8424 26.5165 53.2559
985 1 9.92533 5.86738 74.4608
704 1 4.63721 8.24202 57.6713
706 1 9.17941 8.32341 57.8562
1116 1 27.27 26.4732 78.3793
708 1 15.8672 8.1311 56.4245
710 1 21.5129 8.21476 56.1347
712 1 27.8387 8.12986 54.3621
719 1 7.28265 10.6397 54.6836
718 1 4.99904 12.7198 57.1973
721 1 11.9751 10.7258 55.0004
720 1 9.60969 12.6889 57.4505
722 1 15.203 12.6847 56.6785
724 1 22.0666 13.417 55.6314
795 1 25.4114 10.6192 57.3194
726 1 28.1435 12.409 53.9829
797 1 31.3931 10.1128 56.6436
735 1 12.0259 14.7809 55.3992
738 1 22.0103 17.4945 55.7833
809 1 25.659 15.0411 57.4141
740 1 28.5453 16.6463 54.5952
811 1 31.451 14.7705 56.3001
732 1 5.02741 17.2272 57.7972
734 1 9.40608 16.9451 58.193
749 1 12.1031 19.3845 55.1171
736 1 15.7174 17.3008 56.8594
823 1 25.9291 19.4246 57.3653
825 1 31.3212 19.2495 55.9708
746 1 5.03563 22.0418 57.4501
763 1 12.4191 24.1948 55.198
750 1 15.748 21.5742 56.8063
752 1 21.6953 21.4259 55.2585
837 1 25.19 23.8369 57.3342
839 1 31.5586 23.7993 56.5504
968 1 0.302989 26.0625 73.3502
760 1 4.86598 26.6982 57.6795
762 1 9.19241 25.949 58.3781
764 1 15.7053 26.0413 56.9576
766 1 21.5508 26.0028 55.4995
703 1 2.56094 5.98887 53.9365
773 1 2.8171 5.70206 59.986
709 1 18.3722 5.62107 53.3712
777 1 12.9792 6.01752 59.493
778 1 16.8507 8.3934 60.9682
780 1 22.365 8.16195 60.0508
758 1 0.299142 26.326 56.4388
782 1 29.085 8.12052 58.7593
2321 1 27.6838 27.9766 66.2529
787 1 2.66477 10.2759 60.431
789 1 7.00337 10.7314 60.7517
791 1 13.0462 10.1924 59.516
792 1 16.4694 13.1928 60.7327
793 1 18.9939 11.0701 58.5814
794 1 22.6063 13.0822 60.1517
796 1 29.4337 12.6652 59.1284
867 1 32.776 10.1111 61.0643
801 1 1.75463 14.7217 59.8573
803 1 6.20658 15.2983 60.7707
805 1 13.0441 14.7997 59.8074
807 1 19.6732 15.7196 58.6957
808 1 22.913 17.5005 60.1877
810 1 29.4807 17.1834 59.0718
881 1 33.2513 14.8222 61.0134
815 1 2.32804 19.42 60.437
817 1 6.72952 19.6694 61.1246
819 1 12.8262 19.7332 59.725
806 1 16.4203 17.2699 61.58
821 1 19.1966 19.7504 58.6292
895 1 33.3052 19.3132 60.9976
829 1 2.30797 24.2451 60.523
831 1 6.93446 23.8268 60.6912
748 1 9.8967 21.6574 58.2925
833 1 13.5064 24.1925 59.7578
820 1 16.6832 21.3534 61.3114
835 1 19.7039 23.6297 58.2519
822 1 23.3663 22.166 60.3746
824 1 29.0418 21.8815 59.0291
909 1 32.3787 24.5593 60.8504
2463 1 34.2083 28.3048 75.5804
834 1 17.1903 25.9996 60.6731
836 1 22.4738 26.1731 60.5405
838 1 28.2729 26.3926 59.0147
774 1 4.95181 8.04849 64.0351
776 1 11.064 8.67245 62.2883
1040 1 7.52854 26.449 76.5949
850 1 23.7758 7.88579 64.4758
852 1 29.5884 7.74346 63.4503
788 1 4.41224 12.4906 64.248
790 1 9.913 12.4267 62.2784
861 1 14.1382 10.5954 63.8374
863 1 20.0048 10.4911 63.1293
865 1 26.256 10.1967 61.2418
864 1 23.7098 12.6135 64.2741
866 1 29.7928 12.681 63.3913
937 1 33.2104 10.4515 65.7619
804 1 9.97934 17.2626 62.1797
875 1 13.7379 14.8576 64.0469
877 1 20.3591 15.2499 62.7147
879 1 26.5761 15.0205 61.5855
880 1 30.1561 16.5505 62.8735
951 1 33.3923 14.9454 65.2777
802 1 4.73654 17.2518 63.7234
887 1 8.18876 19.9071 65.5532
889 1 13.8485 19.2523 64.1594
891 1 20.0465 20.0212 62.8976
878 1 23.7815 17.1785 64.51
893 1 26.8473 19.6078 61.8115
1033 1 33.3776 19.3349 64.8137
816 1 4.05474 22.0227 64.0194
818 1 10.3864 21.873 62.6122
901 1 8.29785 24.1834 64.9683
903 1 14.1209 23.9453 64.5381
905 1 20.3289 23.9479 62.7865
892 1 23.8742 21.4501 64.9372
907 1 26.3716 24.1299 62.2332
894 1 30.209 21.916 63.3785
964 1 34.0782 23.9338 64.9539
830 1 4.82778 26.495 63.6313
832 1 10.9544 25.8817 62.1449
906 1 24.1474 25.9791 64.4237
908 1 30.2543 26.5316 63.2328
2383 1 4.16821 27.9703 75.1351
844 1 5.16949 8.2478 67.9008
846 1 11.4166 8.28557 66.7957
1086 1 21.0825 16.67 79.2896
917 1 15.0546 6.1394 68.7888
848 1 17.385 8.11973 65.6217
1119 1 33.8266 24.0269 75.4405
922 1 30.849 7.88601 67.9185
857 1 1.41023 10.2949 66.1236
858 1 4.76262 12.8095 68.1268
859 1 8.08168 9.65396 65.1609
860 1 11.4496 12.5122 66.417
862 1 17.9844 13.0995 65.2743
933 1 21.0964 10.4799 67.0259
935 1 27.1781 10.3362 66.4216
936 1 30.9061 12.293 68.3565
871 1 1.09934 15.0215 66.5583
872 1 4.90316 17.3461 67.5195
873 1 7.22056 14.7724 65.4836
874 1 11.4816 17.2631 66.6802
947 1 21.0165 14.6051 67.3448
949 1 27.4728 15.0949 66.4128
885 1 1.77265 19.518 66.4163
959 1 14.8413 19.1823 68.7242
876 1 17.33 17.5199 65.9847
961 1 21.0567 19.26 66.8745
963 1 27.6665 19.0302 66.0459
950 1 30.7344 16.3869 68.2659
899 1 1.80468 23.8756 66.3892
886 1 5.73479 21.9795 68.2786
888 1 11.8966 21.7405 67.0015
973 1 15.5044 24.6998 68.9347
890 1 17.3251 21.9776 65.8934
975 1 21.3063 23.796 67.6356
977 1 27.6984 23.4506 65.9487
1035 1 31.1049 21.1643 68.4325
2455 1 11.3456 28.0082 78.837
900 1 5.21336 26.1988 68.0908
902 1 12.5595 26.3861 66.9033
904 1 17.74 26.7044 65.5677
926 1 0.159138 12.6623 73.2541
1038 1 0.761165 26.053 78.0079
978 1 30.7231 25.7306 67.6909
916 1 12.3851 8.34058 71.7706
918 1 19.0541 8.05238 69.8289
783 1 32.1767 5.64258 56.2519
920 1 24.7592 7.81977 69.0472
1091 1 33.7027 14.5272 76.2133
927 1 2.11168 10.1367 70.8827
929 1 8.76803 10.6327 69.6822
930 1 12.4758 12.4765 71.0174
931 1 14.581 10.098 68.4409
932 1 18.9018 11.9341 69.673
1003 1 22.2633 10.0876 72.1685
934 1 24.5058 12.4302 68.9907
1005 1 27.9461 9.83253 71.1094
941 1 2.60763 14.3979 70.9287
943 1 8.84794 15.258 69.1017
945 1 15.3181 14.3123 68.3651
944 1 12.7994 17.1315 71.1269
1017 1 21.8732 14.9535 71.8411
1019 1 28.3147 14.4489 70.7013
955 1 2.6838 19.2991 70.9682
957 1 8.86765 19.0156 69.5062
946 1 18.6488 17.1305 70.1523
1031 1 22.1966 19.6972 71.4715
948 1 24.8333 16.8905 68.8984
1020 1 27.913 18.8831 69.9498
969 1 2.55259 23.7186 70.8799
971 1 8.83707 23.6986 69.7225
958 1 12.5875 21.6499 70.8674
960 1 19.0923 21.6728 70.1004
1045 1 22.3775 24.2758 71.724
962 1 24.9539 21.4171 68.8626
1047 1 28.7793 23.527 70.6091
1102 1 27.1799 21.7239 77.7912
2179 1 20.2921 28.4625 58.2768
972 1 12.6146 25.9748 71.2816
974 1 19.7007 26.4311 69.9401
976 1 25.1872 26.0106 69.0732
1115 1 23.6777 23.7525 76.2797
728 1 33.5668 12.7208 53.2989
914 1 6.2072 8.29471 72.1037
988 1 19.2257 7.6403 74.7047
990 1 25.8643 7.71899 73.7691
1113 1 16.8521 23.8503 76.8562
992 1 32.0855 7.97473 72.3677
1118 1 31.7204 26.0995 78.8058
997 1 3.67489 10.0973 75.5045
928 1 6.11621 13.0011 72.5114
999 1 9.67558 10.6486 74.2694
1001 1 15.9899 10.4116 72.6973
1002 1 19.6784 12.224 74.238
1004 1 25.9332 12.3295 73.4222
1075 1 29.3512 10.3245 75.6271
1006 1 31.374 12.556 72.6912
1114 1 20.7103 25.823 79.0152
1011 1 3.32227 14.7108 75.72
942 1 6.18419 16.7574 72.3209
1013 1 9.57574 15.2813 73.8755
1015 1 16.6284 14.4539 72.9057
1016 1 20.239 17.0226 74.5167
1089 1 29.0977 15.0356 75.4688
1022 1 31.925 16.513 72.9115
1025 1 4.24094 19.4287 75.243
1027 1 9.76228 19.1632 73.614
1029 1 16.7178 19.1689 72.7576
1018 1 25.211 16.7976 73.3659
1058 1 20.4164 7.70647 79.1651
956 1 5.79582 21.3914 72.1823
1041 1 9.8481 23.7626 74.1828
1043 1 16.3904 24.4791 72.7539
1030 1 20.0088 21.6153 74.2845
1032 1 26.1525 21.4832 73.2591
1117 1 29.789 23.4009 75.653
1034 1 32.0985 21.4183 72.3245
769 1 29.9546 24.1182 51.7659
2315 1 8.99527 28.3149 69.0372
970 1 6.43234 26.0949 72.1573
2459 1 23.9579 28.5276 76.7513
1042 1 13.5609 26.3146 74.9809
1044 1 20.3135 26.0672 74.4249
1046 1 26.6211 25.9113 73.3251
1048 1 31.6975 25.969 72.0878
982 1 1.17283 7.88385 77.622
984 1 7.47816 7.93484 76.8027
1104 1 31.7868 21.3266 78.5623
986 1 13.5607 8.45927 76.0389
1060 1 26.3823 8.28008 78.5151
1062 1 31.4463 8.30075 79.2937
996 1 1.33059 12.024 77.8392
998 1 6.97377 12.3008 76.3821
1069 1 11.2403 10.1969 78.7527
1000 1 13.3419 12.9471 75.6519
1071 1 16.9666 10.6626 77.6872
1073 1 22.8981 9.89781 75.9546
1074 1 26.5146 12.2672 77.8172
1077 1 33.8326 10.5958 76.0565
1076 1 31.4823 12.6783 79.3655
1012 1 7.1115 17.1958 76.9259
1083 1 10.8503 14.8273 78.3427
1014 1 13.7019 16.9798 75.4979
1085 1 17.2929 14.7877 77.4079
1087 1 23.4817 13.9403 76.2116
1088 1 26.8232 16.9739 77.8067
696 1 20.9182 26.2387 51.3864
1090 1 31.2845 16.6001 78.6988
1010 1 1.47094 17.0468 78.3293
1097 1 11.0728 19.417 78.3238
1099 1 17.4502 19.1576 77.3623
1101 1 23.4438 19.3852 76.6455
1103 1 29.7771 18.9418 75.191
1105 1 34.208 19.3338 76.0223
1024 1 0.955336 21.8155 78.4341
1026 1 7.68278 21.5368 76.4576
1039 1 3.2713 23.174 75.5513
1111 1 11.2578 24.1929 77.8611
1028 1 13.5489 21.0643 75.4002
2177 1 13.0648 28.3083 59.8816
2107 1 12.2319 27.996 55.2065
915 1 8.59633 6.07636 69.9041