ITEM: TIMESTEP
342000
ITEM: NUMBER OF ATOMS
16000
ITEM: BOX BOUNDS pp pp pp
4.0047637999900587e-01 1.0179952362000390e+02
5.7027007693275564e+00 9.6497299230669398e+01
-5.1388357718903421e+00 1.0733883577188695e+02
ITEM: ATOMS id type x y z
10969 1 0.823812 16.8824 6.02497
6 1 14.966 8.04732 -4.21008
8 1 19.6551 8.00238 -3.68638
10 1 24.3435 8.36589 -2.87903
12 1 28.3364 7.87086 -2.32024
14 1 32.9968 7.92104 -1.86656
85 1 3.34691 10.1918 -2.58411
87 1 8.26388 10.093 -2.14545
20 1 14.5276 12.698 -4.08565
89 1 12.2166 10.5144 -1.34764
22 1 19.1804 13.1352 -3.76679
24 1 24.4723 12.6791 -2.85987
26 1 28.8666 12.4058 -2.45972
28 1 33.2395 12.1145 -1.70616
99 1 3.45851 14.4454 -2.72618
101 1 8.0955 14.712 -2.04195
103 1 12.5819 14.7868 -0.935557
34 1 15.1172 17.13 -4.08121
36 1 19.6516 17.1913 -3.52045
38 1 24.1327 17.616 -3.48178
40 1 28.4647 17.1038 -3.07434
42 1 32.7604 16.938 -1.91472
113 1 3.76229 19.1775 -2.4653
115 1 8.0334 20.0709 -2.51253
117 1 12.5532 19.4115 -1.17857
54 1 28.5818 21.7209 -2.74215
127 1 3.82977 23.525 -2.53572
129 1 8.29391 23.9219 -1.61781
379 1 0.760728 14.8179 21.4643
48 1 15.041 21.5384 -4.60846
50 1 19.6003 21.816 -4.37469
52 1 24.2649 21.6107 -3.90789
56 1 33.1753 21.3625 -2.20193
281 1 1.89156 6.50125 15.3537
18 1 10.0062 12.4393 -4.81359
64 1 19.8662 26.457 -4.32036
66 1 24.2996 26.4026 -3.64855
68 1 29.27 27.2086 -2.73535
70 1 33.5954 25.8636 -2.47739
10982 1 0.862734 21.5756 6.03669
72 1 5.45578 7.55987 0.629159
74 1 9.55804 7.55307 1.32721
76 1 14.8738 7.897 1.28525
411 1 10.0809 24.2145 22.7071
348 1 26.1378 26.4078 22.285
4 1 10.3153 7.87791 -4.65314
86 1 5.26378 12.4054 0.986702
88 1 9.76794 12.2704 1.42006
90 1 15.1039 12.4389 1.55829
91 1 17.3261 10.0507 -1.51661
93 1 21.276 10.6852 0.0632699
95 1 26.4193 10.4365 0.921697
97 1 30.9086 9.93839 1.05369
100 1 5.23558 17.0555 0.365074
105 1 17.2693 14.6436 -0.666983
107 1 21.5576 15.2869 -0.414333
109 1 26.1257 15.1087 0.12328
111 1 30.5672 15.1873 0.792789
10904 1 0.663601 16.8427 -0.852436
102 1 9.3469 16.8645 0.816024
119 1 16.9638 19.9951 -0.922346
121 1 21.7151 19.8399 -0.719994
123 1 25.9792 19.2918 0.152595
125 1 30.535 19.089 0.744076
10917 1 1.63939 21.8365 0.00333323
114 1 5.74041 21.6127 0.199252
116 1 9.96981 21.819 1.23189
131 1 12.9475 24.0064 -1.56
118 1 14.7173 21.8317 1.88024
133 1 17.5094 24.1704 -0.911945
135 1 22.0624 23.8866 -1.15731
137 1 26.3092 24.7688 0.0968551
139 1 30.8247 23.8637 0.864952
10930 1 1.30349 25.7038 0.819436
128 1 5.43034 26.4646 0.555393
130 1 10.0198 26.4085 0.868466
132 1 14.5264 25.9394 1.54976
346 1 21.3661 26.0349 21.8649
336 1 30.632 21.7526 23.0006
62 1 15.4257 26.107 -4.78622
351 1 1.37598 5.85593 21.6704
223 1 29.5661 5.76753 13.9071
344 1 17.0764 26.5246 20.6658
78 1 19.0866 7.92681 2.98318
80 1 23.7319 7.79781 2.63208
82 1 28.3784 8.1553 3.59034
84 1 32.6163 7.84686 3.72037
155 1 2.76692 10.2022 3.12905
157 1 7.15756 10.0496 4.29807
159 1 12.6039 10.3493 3.57798
92 1 19.5084 12.646 2.81505
161 1 16.396 9.72208 5.13804
94 1 23.5097 13.1878 3.20612
96 1 28.1076 12.6104 3.81898
98 1 32.8577 12.5652 4.32252
169 1 2.88831 15.0615 2.7962
171 1 7.4643 14.7155 3.81355
173 1 12.1344 14.8373 4.0259
104 1 15.3569 17.086 1.68864
106 1 19.9388 17.2057 2.50482
175 1 16.2807 14.6203 5.43085
110 1 28.3096 17.1645 3.83468
112 1 32.796 17.2676 4.76986
183 1 2.9318 19.1648 3.49533
185 1 7.32838 19.2591 4.1003
187 1 11.5518 19.2685 3.53965
189 1 16.853 18.8789 4.87849
191 1 21.3643 19.6103 6.1002
108 1 23.6937 16.9659 3.62285
197 1 3.07715 23.8313 3.46447
199 1 7.60496 23.5447 3.90205
201 1 11.8712 24.4384 4.5234
120 1 19.7542 21.3142 2.04214
203 1 16.3397 23.5613 5.24653
205 1 20.8637 24.0517 5.5504
122 1 23.6218 21.5474 2.56756
124 1 27.8864 21.6617 3.23696
126 1 32.3558 21.5965 4.16487
75 1 11.9006 5.82914 -1.55394
32 1 10.6221 16.9599 -4.73397
134 1 19.3646 25.6999 2.34767
10943 1 0.669928 7.67929 5.70153
136 1 23.4862 26.5625 2.3798
138 1 27.6964 26.2767 3.34845
140 1 32.0881 26.6834 4.2039
142 1 5.11199 7.7051 6.56394
144 1 9.76761 7.72605 7.2438
146 1 13.6889 7.75401 8.09613
148 1 18.4327 7.48213 8.6586
81 1 26.0287 5.74547 0.441894
156 1 5.19337 12.3827 6.88938
158 1 9.8001 12.5154 7.19265
160 1 13.9415 12.2054 7.6896
162 1 18.3462 12.1259 8.64843
163 1 20.9321 10.4326 5.75589
165 1 25.3905 10.1029 6.5637
167 1 30.1333 9.92701 6.9356
177 1 20.7184 15.1913 6.14252
179 1 25.5057 15.0743 6.70474
181 1 30.0046 14.6469 6.84231
170 1 4.96061 17.0955 6.34065
172 1 9.65462 17.1639 7.20863
174 1 13.8896 16.7386 7.82264
176 1 18.5749 16.9589 8.96817
193 1 25.207 19.5032 6.44547
195 1 29.8703 19.1909 6.88118
184 1 5.23715 21.7884 6.5873
186 1 9.86523 21.8732 7.00231
188 1 13.7224 20.7076 7.5405
190 1 18.3716 21.2841 8.50199
192 1 22.6858 21.748 9.02646
207 1 25.2573 23.592 6.33323
209 1 29.8483 23.8117 6.86741
198 1 5.19717 26.0606 6.83717
200 1 9.91681 26.537 7.60479
202 1 14.358 26.3434 8.25751
283 1 6.37317 5.65241 16.8176
397 1 10.1501 19.4485 22.7841
342 1 12.7517 26.3977 19.9473
150 1 23.2288 7.90966 9.30188
152 1 27.8341 7.46185 9.5518
154 1 31.7656 7.74876 10.4888
225 1 2.37069 10.6932 8.9871
227 1 6.96708 10.598 9.80392
229 1 11.3453 10.2997 11.1007
231 1 15.9569 10.1576 11.5016
164 1 23.6532 12.524 9.12704
233 1 20.7258 10.1719 11.9425
235 1 24.8947 10.3018 12.8367
166 1 27.7079 12.3242 9.90198
168 1 32.1602 12.4512 10.4766
239 1 2.53597 15.2277 9.696
241 1 6.90604 15.1699 10.2664
243 1 11.6869 15.0261 10.6552
245 1 16.2842 15.3352 11.5592
247 1 20.5262 14.4458 11.9682
180 1 27.242 16.9503 10.0622
253 1 2.6942 19.4913 9.59364
255 1 6.87135 19.4756 10.0067
257 1 11.3646 19.5737 10.8148
259 1 16.0683 19.2859 11.1476
261 1 20.4215 19.1402 12.2569
178 1 22.8333 17.0073 9.7926
263 1 24.7733 19.4245 13.2278
182 1 32.0203 17.0136 10.3864
267 1 2.93032 24.131 9.57132
269 1 7.31832 23.5078 10.2931
271 1 11.9854 24.2126 10.9372
273 1 16.0656 23.7429 11.4507
275 1 20.4568 23.3883 12.1709
194 1 27.4582 21.603 9.95649
279 1 29.3988 23.9304 13.4564
196 1 31.4737 21.6622 10.8204
204 1 18.774 26.0435 8.54302
206 1 22.5962 26.354 9.27402
208 1 27.7321 25.6615 10.0983
210 1 31.7852 25.7035 10.3733
212 1 4.31922 8.30168 12.5752
214 1 8.53166 7.87271 13.1887
216 1 12.9626 7.81678 14.4029
218 1 17.7457 7.92967 14.9426
220 1 22.1655 7.76912 15.6923
222 1 26.5629 8.39017 16.4429
295 1 1.27225 10.866 16.1627
226 1 4.26076 12.5015 13.124
228 1 8.8176 12.4292 13.311
230 1 13.5052 12.3873 14.0882
232 1 18.2097 11.9395 15.1709
234 1 22.8121 12.4718 15.6427
237 1 29.6405 10.3027 13.4886
236 1 27.159 12.8753 16.0888
293 1 28.7766 6.12499 19.5706
240 1 3.96416 17.0425 12.9309
242 1 9.12331 17.2295 13.9729
244 1 12.9805 17.195 14.353
246 1 17.9524 16.7219 14.9877
249 1 25.2723 14.5995 13.1034
251 1 30.1108 14.5732 12.7664
5822 1 33.9318 14.6668 13.7913
323 1 1.7403 19.3202 16.1113
248 1 22.3787 16.7815 15.9118
265 1 29.2178 19.132 13.5991
250 1 26.3882 17.4211 16.6415
5835 1 33.8642 19.1681 13.9928
337 1 1.34981 24.1631 15.7288
254 1 3.99663 21.5006 12.6755
256 1 9.03774 21.6691 13.5796
258 1 13.5944 21.9298 14.2279
260 1 18.3555 21.59 14.7283
262 1 22.45 21.5365 15.652
277 1 25.1261 24.1747 12.5442
264 1 27.0412 22.2437 16.2823
5848 1 34.1425 23.887 13.9683
268 1 3.84518 26.2482 12.9084
270 1 8.56846 26.2695 13.3359
272 1 13.9381 26.4784 14.5613
274 1 17.8397 26.3922 14.7066
276 1 22.3429 26.1372 15.55
5796 1 33.7681 5.75871 14.1816
383 1 10.0062 14.8465 22.9839
278 1 26.7935 26.0661 16.6154
282 1 3.4666 7.5718 18.7467
340 1 7.76743 26.714 19.4036
338 1 3.7097 25.9948 19.4764
224 1 31.3237 8.34669 16.8904
297 1 6.22315 10.3099 16.4757
299 1 10.6744 10.6051 17.4141
301 1 15.2723 10.783 17.5237
303 1 19.9292 9.98444 18.5179
305 1 24.165 10.1472 19.4605
307 1 28.7869 10.3343 20.2833
238 1 31.4074 12.3063 16.6322
309 1 1.23117 14.4747 15.7481
310 1 3.91445 16.7138 19.0972
311 1 6.61804 14.378 16.1774
313 1 10.7228 14.7664 16.507
315 1 15.2085 14.7716 17.6505
317 1 19.9154 14.7059 18.3338
319 1 24.6044 14.7378 19.403
321 1 28.6551 14.8563 19.8959
252 1 31.3295 16.9622 16.6337
325 1 6.36863 19.2454 16.0195
327 1 10.847 19.3036 16.8569
329 1 15.5358 19.29 17.7914
331 1 20.2004 19.2464 18.1618
333 1 23.9269 19.3539 19.4672
324 1 3.47613 21.4277 19.1047
339 1 5.89971 24.2219 16.0015
341 1 10.4 24.3292 16.5486
343 1 15.1048 23.3655 17.6532
345 1 19.5656 24.0131 18.5203
347 1 24.2411 23.5806 18.7729
349 1 28.7889 23.8096 20.351
266 1 31.0733 21.7499 16.6551
1547 1 16.6118 28.2329 5.1197
1685 1 10.4213 28.3184 17.0601
1471 1 3.29332 27.9052 -3.06224
409 1 5.3732 23.5742 22.8079
1473 1 7.99705 28.4262 -2.32443
5861 1 33.5007 5.81771 20.4025
280 1 31.5799 25.9468 17.0794
149 1 21.2923 5.86156 5.88804
284 1 8.16141 8.35636 20.2602
1613 1 7.33239 28.2095 10.3495
286 1 12.3021 7.82776 20.4179
288 1 17.1974 8.46496 21.1585
290 1 21.8696 7.75748 22.4651
1541 1 3.35021 28.3504 3.21467
287 1 15.2519 5.762 18.0263
296 1 3.36951 12.1376 19.0689
365 1 0.643967 9.77865 21.8396
298 1 8.1623 12.5898 20.1698
300 1 12.1382 12.4907 20.3624
302 1 16.6804 12.826 21.2946
304 1 21.2766 12.6331 22.0121
217 1 16.1293 6.1711 11.8425
79 1 21.4787 6.00543 -0.0749719
5874 1 33.476 10.2711 20.2212
381 1 5.28414 14.7616 22.4685
1551 1 25.3942 27.8085 7.1525
312 1 8.40791 17.2256 19.5166
316 1 17.0721 17.1056 20.5357
318 1 21.4529 17.3925 21.8542
320 1 25.8335 17.1794 22.579
1611 1 2.63582 28.0929 9.46877
5887 1 33.3823 15.0845 20.0068
393 1 0.970418 18.7352 22.156
395 1 5.57144 19.4747 22.5746
314 1 12.4664 17.2104 20.4724
335 1 28.4039 19.1214 19.5864
5900 1 33.1842 19.6426 20.0736
407 1 1.35183 24.0763 22.245
285 1 11.0034 5.90514 16.7654
326 1 8.10255 21.9889 19.3575
328 1 12.6771 21.8609 20.575
330 1 16.9413 21.0495 21.2009
332 1 21.2646 22.0907 22.1828
334 1 26.0196 21.8567 22.7961
5913 1 32.9533 24.3526 20.2757
211 1 2.04912 6.14884 9.36942
213 1 6.74932 5.74005 10.1607
1545 1 12.236 28.4284 4.58591
7096 1 33.4354 28.2938 13.7277
1477 1 16.9923 27.8976 -0.831227
1483 1 30.7442 28.014 0.678103
1479 1 21.6352 28.4039 -0.530512
1553 1 29.2934 28.3906 7.06867
1753 1 6.12691 28.0345 22.9094
322 1 30.4159 17.2671 22.9371
60 1 10.9167 26.3643 -5.03134
352 1 2.96563 8.01192 25.4857
354 1 7.55148 7.93948 25.9443
356 1 12.2401 7.73606 26.253
632 1 1.29343 7.62281 49.6331
377 1 28.2784 10.7647 25.822
366 1 2.23217 12.7364 25.4316
368 1 7.48636 12.3909 25.8298
294 1 30.7764 7.98564 23.2602
371 1 14.3214 10.0914 23.3571
373 1 19.1026 9.87258 24.4158
375 1 23.6661 10.2955 25.2837
5939 1 32.6402 10.6135 27.1168
380 1 2.96747 16.78 25.2249
382 1 7.35307 17.3377 25.6023
643 1 29.6915 6.27781 47.2611
385 1 14.5494 14.7393 23.8272
387 1 18.645 14.7143 24.2749
389 1 23.3002 14.9468 25.4919
391 1 28.0793 15.2443 25.4868
5952 1 32.5659 14.9044 26.4082
449 1 0.390343 15.1447 28.8276
399 1 14.101 19.3313 23.8627
401 1 18.1271 19.5072 24.602
403 1 23.507 19.612 25.7273
405 1 28.1234 19.6229 26.2178
5965 1 32.4992 19.6139 26.8223
394 1 3.18591 21.1339 25.2862
396 1 7.75125 21.8376 26.094
639 1 16.7493 5.75554 49.7754
413 1 14.7949 23.7864 23.5632
415 1 18.7256 24.2039 24.2733
417 1 23.7159 24.1985 25.4113
419 1 28.4264 24.0013 26.1303
408 1 3.29895 25.8209 25.2336
410 1 8.12932 25.9797 26.695
693 1 13.1822 23.4911 48.548
414 1 16.9774 25.7122 27.5336
1895 1 8.69822 28.3048 36.2511
1969 1 17.5774 28.0553 43.3072
646 1 0.886129 12.2646 50.4531
2041 1 23.4332 27.9335 48.531
431 1 23.2591 6.14829 31.163
425 1 9.97276 6.25004 29.559
441 1 13.7678 9.14365 29.6834
358 1 16.427 7.54487 27.3771
648 1 5.52485 12.4852 50.8427
360 1 21.0757 7.3402 27.828
362 1 25.8238 8.1071 28.4648
364 1 30.2196 8.19055 30.1982
1821 1 0.883839 28.2737 28.0883
437 1 5.4022 10.3908 28.6241
439 1 9.41429 10.6249 30.3254
370 1 11.9587 12.4521 26.7283
372 1 15.9915 12.2028 27.2161
374 1 20.4769 12.8603 27.7077
376 1 25.7409 12.8419 28.5013
378 1 29.6572 13.1611 29.5572
451 1 5.23703 14.9644 28.4712
453 1 9.63449 15.304 29.7085
384 1 11.3423 16.9892 26.5384
386 1 16.1817 16.8664 27.0983
388 1 20.7178 17.4033 27.6597
392 1 30.3569 17.3928 29.7771
700 1 33.2958 26.1901 49.2644
463 1 0.779705 19.8329 28.3313
465 1 5.46544 18.9445 28.8484
467 1 9.97211 19.1187 29.2295
390 1 25.3508 16.8873 28.9271
350 1 30.2691 26.5437 22.9927
479 1 4.92063 23.6189 29.0459
481 1 9.48882 23.5534 29.6648
398 1 11.9926 21.999 26.3243
483 1 13.8301 23.6514 30.1776
400 1 16.5314 21.588 27.3159
402 1 21.083 22.0796 27.5523
404 1 25.446 21.4883 28.623
5978 1 32.4297 24.2596 26.4252
406 1 30.0807 21.3804 29.5157
691 1 8.58647 23.9891 48.0679
695 1 17.701 23.919 49.4254
435 1 0.630082 10.1309 28.1819
412 1 12.0668 26.7603 27.0629
416 1 21.4074 26.6523 27.5768
418 1 25.6962 26.5103 29.1289
420 1 30.4335 26.2964 28.9536
306 1 25.9362 12.5865 23.2696
422 1 2.75964 7.93164 31.5616
424 1 7.3094 8.23518 32.6827
426 1 11.721 7.69603 32.8995
428 1 16.721 8.16265 33.1445
690 1 5.39484 25.9797 50.9538
436 1 2.61294 12.6764 31.2472
438 1 7.22468 13.0024 32.2175
440 1 11.1207 12.9355 33.5852
442 1 16.7871 12.8085 33.7772
443 1 18.5748 10.4237 30.444
445 1 22.5706 10.5885 30.5456
447 1 27.7819 10.7493 32.377
6004 1 32.7513 10.6588 32.1761
452 1 7.16216 16.9279 32.064
454 1 11.7287 17.5578 33.258
455 1 14.1389 14.675 30.3996
457 1 18.851 15.2182 30.4149
456 1 16.3322 17.1746 33.8766
459 1 22.7815 15.195 31.2496
461 1 27.458 14.8713 32.5448
6017 1 32.0347 15.3123 32.7326
450 1 2.54215 16.6848 31.8225
469 1 14.3621 19.136 30.7776
471 1 18.4679 19.6925 30.1986
473 1 23.1243 19.531 30.8459
475 1 27.4952 19.8915 32.1219
6030 1 32.5147 19.532 33.1873
464 1 3.15258 21.5288 31.7006
466 1 7.18177 21.5761 32.4203
468 1 11.8658 21.246 33.0536
485 1 19.1729 23.9798 30.4185
487 1 22.6879 23.8981 31.7501
489 1 27.4838 23.7686 31.3729
6043 1 31.9885 23.5582 32.6502
478 1 2.6308 25.751 31.5717
480 1 7.21503 25.9907 32.9192
482 1 11.786 26.8768 32.92
5979 1 34.0667 25.941 29.961
547 1 0.794803 23.4075 34.3446
477 1 1.31888 24.4343 28.2586
6147 1 34.1814 15.1065 41.6302
7291 1 32.1624 28.1813 32.7275
5926 1 32.303 5.9506 26.6553
563 1 3.67888 6.017 41.5653
641 1 23.5492 6.07116 48.2714
430 1 20.7593 8.02885 33.9258
432 1 25.3157 7.9282 34.7142
434 1 29.6671 8.13467 34.9696
698 1 26.6597 25.6423 50.1557
507 1 5.23583 10.3608 35.7976
509 1 9.85541 9.5893 35.9347
511 1 14.5194 10.3355 36.3038
513 1 18.6171 10.6703 36.8352
444 1 20.6253 13.0172 33.9244
446 1 24.8574 13.1056 34.8533
448 1 29.5709 13.1367 35.8749
6069 1 33.349 10.1895 36.8417
521 1 4.03309 14.8322 34.9947
523 1 8.65553 15.3884 36.2179
525 1 13.7726 14.8786 36.37
527 1 17.9256 14.8883 37.265
458 1 20.8564 17.6511 33.6183
462 1 29.7919 17.1873 35.5738
567 1 12.9851 5.91085 43.2836
535 1 4.72403 19.2181 35.2876
537 1 9.14792 19.5167 35.9469
539 1 13.779 19.7562 37.0502
541 1 18.3896 19.5797 36.9932
460 1 25.4095 17.3182 34.3899
6095 1 33.7937 19.3043 36.9675
549 1 4.55402 24.0263 35.2387
551 1 9.29164 24.1006 35.8366
553 1 13.2308 24.276 36.3839
470 1 16.5696 21.8398 33.7623
555 1 17.721 24.0992 37.5879
472 1 20.2786 22.3351 34.8605
474 1 25.032 21.8838 35.6845
476 1 29.4102 21.8987 35.4445
499 1 18.3357 6.03521 37.1279
484 1 16.0737 26.2811 33.3608
486 1 19.996 26.8106 34.0916
488 1 25.4765 25.9883 34.7643
490 1 29.301 25.9379 35.795
492 1 1.65459 8.4582 38.1094
494 1 6.78776 7.8676 38.5181
496 1 11.2931 8.08979 39.5599
498 1 16.0915 7.78199 39.8458
500 1 20.1067 7.97765 40.2399
505 1 0.666459 10.3191 34.8617
504 1 30.6864 7.89686 39.263
506 1 2.23763 13.0232 38.0545
508 1 6.91603 12.5984 39.1012
512 1 15.9095 12.0628 40.3733
515 1 22.8289 10.4857 37.1718
514 1 20.5644 12.7311 40.3809
517 1 27.2081 10.4392 38.1611
518 1 30.8443 12.6236 39.546
510 1 11.4409 12.6986 38.8907
529 1 22.5507 14.9792 37.6939
531 1 27.4459 15.1569 38.3307
6082 1 33.6713 14.9238 36.846
532 1 31.0048 16.8889 39.9678
520 1 2.14418 17.7427 38.0269
522 1 6.68091 17.4586 39.1513
524 1 11.1743 17.2267 39.5956
526 1 15.3018 16.8197 40.1005
543 1 22.0289 18.8321 37.2384
545 1 27.277 19.2498 38.3617
534 1 2.10406 21.6085 37.8716
619 1 3.70512 24.332 41.7238
536 1 6.65563 22.0344 39.0103
538 1 11.0197 21.8131 39.416
540 1 15.502 21.2743 40.5656
557 1 22.4378 24.1902 38.1923
542 1 20.0608 21.2502 39.9199
559 1 27.0625 24.0737 38.5222
6108 1 33.2085 23.9261 37.1226
546 1 30.9278 21.3003 39.7112
548 1 1.7577 25.8001 38.3932
550 1 6.55014 26.5579 38.7192
552 1 11.1125 26.0854 39.59
554 1 14.8588 25.8832 40.3221
369 1 9.61689 10.2374 23.5855
556 1 20.2413 25.9393 40.9455
5991 1 32.4112 6.03816 32.1407
1761 1 23.9294 28.3805 25.16
560 1 30.8301 26.1036 39.6118
1897 1 13.2488 28.1106 36.6285
569 1 17.9437 5.70463 43.4624
634 1 5.78149 7.82064 51.0095
689 1 3.07792 23.5515 47.6547
502 1 24.5093 8.11332 40.7224
577 1 3.98912 10.1412 41.346
579 1 8.67899 10.2455 41.7077
581 1 13.2372 10.0955 42.667
583 1 17.6072 10.1922 43.4864
585 1 21.8399 10.0928 44.2229
516 1 24.3711 12.7007 41.0058
587 1 28.8851 9.38982 42.3367
591 1 4.0092 14.8844 41.9574
593 1 8.82296 15.1573 41.7333
595 1 13.4099 14.6308 42.655
597 1 18.0866 14.8585 43.4529
599 1 22.3501 14.8023 43.5959
601 1 28.1519 14.7559 42.767
590 1 1.26339 17.2616 44.712
605 1 3.89862 19.5998 41.6667
607 1 8.62118 18.969 42.0661
609 1 13.3585 19.2178 42.572
611 1 18.0662 18.7702 43.3632
528 1 20.0111 16.7002 40.9948
613 1 21.8662 19.5844 44.3467
530 1 24.5502 17.3013 41.4542
615 1 28.1832 19.3942 43.0043
604 1 2.1967 21.2779 44.5598
621 1 7.93985 23.9864 42.189
623 1 12.5934 24.1862 42.9598
625 1 17.9997 23.3094 42.4711
627 1 22.3787 23.5008 44.0798
544 1 24.4034 21.2603 41.4005
629 1 28.0808 24.0337 42.6287
616 1 31.7413 21.6616 44.3016
699 1 29.8361 23.9011 47.2409
684 1 26.9052 21.2911 49.7849
558 1 24.3661 26.7562 41.4849
2033 1 3.18541 27.9259 48.0074
630 1 31.7823 26.4552 44.7226
562 1 1.87756 7.84638 44.5357
564 1 5.7486 7.68666 44.7557
566 1 10.4127 7.79918 45.7564
568 1 15.0978 7.69303 46.2915
570 1 19.7786 8.29531 46.9143
572 1 26.475 8.21952 45.3933
674 1 0.769056 21.6451 51.0654
574 1 32.1373 7.98894 43.7791
576 1 1.50318 12.5921 44.0752
647 1 3.97515 10.3357 47.4873
578 1 6.24723 12.3611 44.5429
580 1 10.7588 12.2675 45.0684
582 1 15.3719 12.6066 46.2245
584 1 19.9848 12.7509 46.7132
586 1 25.8024 12.2457 44.9813
657 1 29.7864 10.5878 46.5677
588 1 32.0111 12.6398 43.7815
661 1 3.98154 15.0239 47.9199
594 1 10.467 16.9183 45.5514
671 1 29.1737 14.5002 47.048
602 1 32.1349 17.1508 44.9505
675 1 3.6657 18.9586 47.5417
592 1 5.80754 16.8508 45.1437
596 1 15.2276 16.8267 46.3448
598 1 20.0237 17.0679 47.1873
600 1 25.5039 16.9589 45.4574
685 1 29.9372 19.1554 47.2843
606 1 6.10743 21.9281 44.7981
608 1 10.3952 21.4987 45.4237
610 1 15.3919 21.6127 45.2198
612 1 19.2107 21.5127 46.8903
614 1 26.097 21.4139 45.7069
618 1 1.39281 25.8385 44.4815
620 1 5.94082 25.8814 44.9341
622 1 10.5214 26.3304 45.5825
624 1 15.395 26.3154 46.3011
626 1 20.0095 26.3401 46.9445
628 1 25.8236 25.4648 45.413
686 1 33.3825 21.3577 49.3233
503 1 26.9292 5.68146 37.4231
501 1 23.0717 5.82297 37.3366
6173 1 34.067 23.9768 41.779
670 1 26.8054 16.9288 49.7605
1827 1 14.4657 27.4267 29.9689
642 1 27.1473 7.9568 49.7463
644 1 32.9833 8.03193 48.5285
1899 1 17.9292 28.1682 37.4046
1971 1 22.0176 28.076 44.0074
649 1 8.43387 9.9951 47.9687
651 1 12.5063 10.4892 49.0474
653 1 16.9259 10.7222 49.6752
433 1 27.663 5.82727 32.2437
655 1 23.7472 10.1776 48.6589
658 1 33.5045 12.8737 48.3579
697 1 22.9856 24.1674 47.9039
663 1 8.13515 14.8089 47.8744
665 1 13.0878 15.0064 49.2526
667 1 17.0969 15.2364 49.7289
656 1 27.4903 12.4617 49.7736
669 1 23.8259 14.7109 48.2624
672 1 33.2566 17.527 48.8046
660 1 0.961867 17.1133 50.8094
677 1 7.99168 19.5275 48.4264
679 1 12.888 19.4723 48.4771
681 1 16.8432 19.6726 49.2972
683 1 23.0626 19.4126 48.5283
497 1 14.628 6.02051 36.2024
493 1 4.64746 6.02555 35.3079
308 1 30.677 12.5513 23.0841
7356 1 33.0215 28.1038 37.3043
1901 1 22.6129 28.1938 37.6981
2037 1 13.15 27.9953 48.8558
676 1 5.26079 20.9612 50.833
1823 1 5.52751 28.0074 28.8583
363 1 28.548 6.22077 26.2254
654 1 20.7459 12.7037 50.6933
1825 1 9.6431 28.2562 29.5269
2043 1 29.1719 28.3501 47.0352
688 1 0.841 25.5594 50.7761
367 1 5.01793 10.2712 23.1691
353 1 5.8677 5.76861 23.1997
292 1 26.5304 8.62292 23.0131
636 1 9.62328 7.68486 51.9683
638 1 14.2344 8.2635 52.7532
991 1 27.9513 5.68652 70.9624
711 1 24.4748 5.8589 52.42
712 1 27.6224 8.51365 54.4174
1055 1 10.8811 6.05041 78.4518
940 1 0.400561 16.4346 73.5631
717 1 2.61005 10.0008 53.4297
650 1 9.38223 12.893 51.7463
652 1 14.1486 12.676 52.1727
723 1 17.3681 11.0859 54.3491
725 1 24.3425 10.5435 52.6961
726 1 27.7762 12.4976 54.4209
727 1 30.701 10.4503 51.3097
640 1 20.2219 8.40606 51.5118
731 1 2.80475 14.0565 54.2696
733 1 7.46937 14.8934 54.4045
737 1 17.9899 14.8338 53.8616
668 1 20.9443 17.0009 51.7349
739 1 24.2288 14.3521 52.6454
741 1 30.6333 15.066 51.7695
745 1 2.75023 18.747 54.1789
747 1 7.39699 19.2485 54.6862
664 1 9.86549 17.4655 51.4009
666 1 14.1301 17.3551 52.5406
751 1 17.4506 19.3456 53.2698
753 1 24.1912 19.1952 52.8398
758 1 0.739148 26.4779 56.4317
709 1 18.1641 5.96477 53.9966
759 1 2.79341 23.4821 53.4715
853 1 32.1774 5.82959 61.1686
680 1 14.9906 22.3031 52.4756
765 1 18.0393 23.8792 54.3114
696 1 20.8929 26.2227 51.8178
767 1 24.0446 23.61 52.4164
754 1 28.1819 21.6376 54.2586
769 1 30.3546 23.8302 51.8417
682 1 20.489 21.4911 51.5155
713 1 30.6218 5.71438 51.6218
692 1 10.5021 25.4032 51.5165
694 1 14.5889 26.1559 51.9678
662 1 5.25977 17.0479 51.5773
768 1 27.7574 26.0245 54.0685
6537 1 34.1953 19.23 69.327
1118 1 31.1002 26.3032 78.1443
704 1 4.40745 8.01673 58.2395
770 1 34.1358 26.3009 53.7648
708 1 15.6687 8.21672 56.9461
710 1 22.0553 7.83144 55.4994
926 1 0.77531 12.1889 73.2292
719 1 6.99952 10.2535 54.7874
718 1 4.67807 12.0643 57.264
721 1 11.6244 9.83592 54.9571
722 1 14.8526 12.9565 56.7708
724 1 21.0979 13.234 55.0768
795 1 24.8661 10.4642 57.3342
797 1 31.5075 10.5493 55.9496
734 1 9.75395 17.069 58.0245
735 1 11.6753 15.0011 55.1258
809 1 25.1061 14.8667 57.3234
811 1 31.7982 15.0967 56.4251
1086 1 20.4324 17.2339 78.9559
732 1 4.97502 16.7477 57.4532
749 1 11.9486 19.7574 54.8606
736 1 15.9223 16.6049 56.6289
738 1 21.7797 17.2573 55.3883
823 1 25.3926 18.9575 57.4896
740 1 27.9755 16.6086 54.1036
825 1 31.8777 19.1883 55.6398
761 1 7.25674 23.8257 54.616
746 1 5.05859 21.4702 56.9492
763 1 11.8297 24.4556 55.3032
748 1 9.45664 21.6112 58.1708
750 1 15.4682 21.4524 56.1987
752 1 21.7512 21.2401 55.8882
835 1 18.7555 23.9837 58.3787
837 1 25.175 23.7591 57.1449
839 1 31.1381 24.5573 56.5425
1114 1 20.2862 25.7512 78.0803
760 1 4.72967 26.1896 56.513
777 1 12.84 5.83972 59.5282
775 1 6.57253 5.93606 60.8592
764 1 15.4384 26.7256 56.6626
766 1 21.8848 26.1664 55.5838
744 1 0.642617 21.6054 56.4856
847 1 13.6176 5.80971 64.3461
678 1 9.99839 21.4091 51.5756
706 1 9.20115 8.08003 58.3826
778 1 16.4094 7.98873 61.5242
780 1 22.2436 7.82582 60.0753
779 1 19.3852 5.87714 58.55
782 1 28.7835 8.42736 59.0623
787 1 1.97525 10.2932 60.7712
789 1 6.82096 10.6307 61.3428
720 1 9.42717 13.2292 57.6847
791 1 12.2379 10.6368 59.1593
793 1 18.7079 10.5481 58.1436
794 1 22.562 12.6405 59.7157
796 1 28.9204 12.2675 58.809
867 1 31.8075 10.659 60.6434
801 1 2.09078 14.9543 59.9993
803 1 6.96491 15.0727 60.341
805 1 13.067 15.1514 59.6451
807 1 18.7088 15.0269 58.709
806 1 16.2708 16.6699 61.3874
810 1 28.6067 16.7503 58.0947
881 1 32.2166 15.1585 60.6796
815 1 2.34105 19.4467 60.0261
817 1 6.95646 19.4681 60.6922
819 1 13.5217 19.5074 59.2912
821 1 18.8961 19.2399 57.8394
808 1 22.6688 17.3358 60.1509
895 1 32.4472 19.7005 60.2988
829 1 2.61071 24.1464 60.1133
831 1 7.11804 24.1413 61.3188
833 1 13.3235 23.8904 59.7436
820 1 16.9683 21.5317 60.8027
822 1 22.6003 21.9587 59.8194
824 1 28.6505 21.3444 58.3866
907 1 26.6159 23.7021 60.7745
909 1 31.8278 23.6743 60.8848
2463 1 33.8646 28.2325 75.8899
762 1 8.87532 26.9188 57.8568
1040 1 7.2824 26.0056 77.107
834 1 16.4429 25.992 61.1104
836 1 22.6326 25.9106 60.3786
1077 1 33.4628 10.5774 75.5598
838 1 28.6422 26.5857 58.8163
774 1 3.98836 7.94803 63.5959
776 1 10.1329 8.38328 62.4856
1038 1 1.39135 25.6386 77.725
850 1 23.3736 8.59509 64.7369
852 1 29.6495 7.80844 63.728
788 1 4.17726 12.6201 63.4982
859 1 7.45355 10.4677 65.6546
790 1 10.3328 12.3961 62.3184
861 1 13.8994 10.2043 64.722
792 1 16.0075 12.214 61.4749
863 1 19.4934 10.4031 62.768
865 1 25.8137 10.141 61.8016
866 1 29.5931 12.4535 63.1432
937 1 33.4235 10.5307 65.2137
802 1 4.77039 17.158 62.8492
804 1 10.8358 17.1514 62.3145
875 1 13.8648 14.7066 64.671
877 1 20.3659 14.9045 63.0403
879 1 26.6505 14.664 61.1577
887 1 7.89468 19.6336 65.2589
889 1 14.0518 19.4019 64.0574
891 1 19.7395 19.2485 62.3
893 1 26.035 19.3017 61.8025
878 1 23.6385 16.793 63.9287
880 1 29.8397 17.2048 62.9708
1033 1 33.2515 19.6002 65.1598
816 1 4.71173 21.9469 63.4653
901 1 8.01452 24.2707 65.1006
818 1 10.7395 22.2206 62.0774
903 1 14.0824 23.5158 64.1945
905 1 20.3292 23.8936 62.8519
892 1 23.5366 22.3537 64.5254
894 1 29.8706 21.2711 63.2013
964 1 32.9347 24.0406 64.9199
830 1 4.00123 26.1284 63.9755
2179 1 19.2585 28.241 57.9953
832 1 10.9065 26.3919 62.5447
993 1 33.811 5.87315 69.5661
906 1 23.7369 26.4195 64.8527
908 1 29.6235 25.9895 63.2989
1104 1 31.2215 21.4923 78.6264
851 1 25.7656 5.92316 61.573
844 1 5.48625 7.29562 68.0969
846 1 11.2263 7.98828 67.0327
848 1 17.5955 7.57618 65.398
781 1 25.4215 6.41215 56.887
922 1 30.7086 7.67455 67.6154
857 1 1.93984 9.96996 66.3506
858 1 5.41637 12.0166 68.4411
860 1 11.5151 12.6311 66.9
931 1 15.308 9.46825 68.4873
862 1 17.9472 12.3979 65.8471
933 1 20.8732 10.1293 67.3806
864 1 23.4804 12.5789 64.4044
935 1 27.2645 10.7509 66.5076
936 1 30.5462 12.4142 67.5955
871 1 1.57963 14.411 66.2844
873 1 7.74209 15.5513 64.2314
945 1 15.1006 14.7121 68.1439
947 1 20.7183 14.8485 67.2856
949 1 27.3604 14.5026 65.8516
951 1 33.3656 14.8631 65.2024
885 1 1.69472 19.1739 65.9869
874 1 12.0189 16.9926 67.1363
876 1 17.711 17.0906 65.0676
961 1 21.5629 19.2038 67.1571
963 1 26.8273 19.3044 65.9231
950 1 30.3606 17.0825 67.5124
899 1 1.7557 23.9504 66.5689
886 1 4.72899 21.0768 67.2958
888 1 11.6801 21.6891 66.8003
973 1 15.2279 24.0308 68.4956
890 1 17.8914 21.2195 65.8453
975 1 21.0731 23.7564 67.6404
977 1 27.3786 23.5619 66.1493
1035 1 30.1321 21.2625 68.0724
912 1 0.594563 7.80931 73.872
900 1 5.17282 25.7077 67.9037
902 1 11.4574 25.8514 67.0681
904 1 17.3058 25.7139 65.6678
2251 1 26.7104 28.3293 61.8871
978 1 30.8939 25.8378 67.9724
703 1 2.8399 6.01527 54.0122
714 1 33.8961 8.33597 52.5165
916 1 12.2125 7.95998 71.7059
918 1 18.2072 7.95356 70.2049
755 1 30.1999 19.6954 51.5397
920 1 24.4356 7.62035 69.0665
927 1 3.11993 10.1322 70.8008
929 1 9.25564 9.59649 69.9343
930 1 12.4328 12.3284 71.1256
932 1 18.3834 12.6147 70.2919
934 1 23.921 11.9998 69.3017
1005 1 28.2756 9.8121 71.0835
941 1 2.99714 14.2647 70.8093
943 1 8.75191 14.4068 69.8573
946 1 18.1657 16.7128 69.9994
1017 1 22.0274 14.4732 71.7739
1019 1 28.1062 15.1971 70.3342
1076 1 30.9704 12.6086 78.2495
955 1 3.12222 19.2249 70.6771
872 1 5.30338 16.7895 67.523
957 1 9.11858 18.7077 69.3321
959 1 15.108 19.2873 68.1221
944 1 12.5306 17.0336 70.9308
1031 1 21.7372 18.9782 71.6519
948 1 24.7201 16.6676 68.9478
1020 1 28.1605 19.1697 70.9817
1022 1 31.5708 17.5456 71.9169
969 1 3.01711 23.1615 70.8873
971 1 8.74046 22.686 69.2889
958 1 12.5027 21.0644 71.3158
960 1 18.5731 21.2072 70.4588
1045 1 22.9698 23.4748 71.778
962 1 24.4634 21.2757 68.7848
1047 1 28.0292 23.2724 70.6112
1034 1 31.7578 21.8583 72.3116
2249 1 19.9848 28.394 62.9044
972 1 11.7134 25.793 71.1342
2457 1 17.0767 28.2078 76.8417
974 1 19.1487 25.8345 70.1512
1102 1 27.0609 21.5199 78.448
976 1 25.2437 25.9504 68.6404
742 1 34.1619 17.3974 53.1257
707 1 11.847 5.98654 54.8995
914 1 6.07056 7.30047 72.5837
2387 1 15.4486 27.8748 72.6448
988 1 19.9259 7.71287 74.533
990 1 24.9939 7.98123 73.6756
783 1 31.1066 6.05568 56.3967
845 1 8.19569 6.41494 65.2644
992 1 31.829 8.20779 71.9585
1116 1 26.6517 26.2529 78.1859
928 1 6.7952 12.3792 72.4973
999 1 9.83533 9.74797 73.8604
1001 1 16.093 10.4205 72.4367
1003 1 22.066 9.90226 71.8326
1002 1 19.5552 12.4247 74.7751
1004 1 25.3788 12.6722 73.429
1075 1 28.7894 10.3321 74.767
1006 1 31.7038 12.8147 71.9939
1011 1 3.87345 14.7516 75.3617
942 1 5.60384 16.8522 72.2245
1013 1 10.7816 14.3184 74.1311
1015 1 15.7661 14.7787 73.3756
1089 1 28.8624 14.5485 75.0685
1025 1 3.8496 19.5019 75.2919
1027 1 10.3589 19.0859 73.8666
1014 1 13.8996 17.5093 75.5833
1029 1 16.3421 19.4853 73.2928
1016 1 18.9809 16.5949 74.3814
1018 1 25.1379 17.3309 73.3386
1103 1 29.2709 19.1635 74.9839
1105 1 34.0919 19.1298 75.5434
956 1 6.95173 21.3056 72.4809
1041 1 9.48452 23.9565 73.9348
1028 1 13.042 21.3699 76.0854
1043 1 15.5613 23.9145 73.0104
1030 1 19.3245 22.2383 74.9262
1032 1 25.4708 20.9471 73.8084
1117 1 29.0292 23.6814 75.1333
1119 1 33.7344 24.1453 75.5574
970 1 6.62508 25.9421 71.9754
1057 1 17.1729 5.86944 77.7191
1042 1 13.2002 25.992 75.7478
1044 1 19.786 25.96 73.9513
1046 1 26.0038 26.3932 73.5293
1048 1 31.4681 25.6457 72.7595
982 1 1.07356 7.73833 78.5276
984 1 7.63121 7.23164 77.1022
986 1 13.7856 7.95864 75.5787
1115 1 23.4391 24.0487 76.5416
1060 1 26.3075 7.93183 78.0616
1062 1 30.9094 8.02803 78.0088
997 1 3.8912 10.182 75.55
996 1 1.12485 12.6812 77.8368
998 1 7.5898 12.3184 76.9922
1069 1 10.6992 10.1156 78.6078
1000 1 13.6763 12.7298 76.0743
1071 1 17.566 10.5282 77.3923
1072 1 20.7257 12.3455 78.7765
1073 1 23.4236 10.0641 76.3754
1074 1 26.8309 12.3355 77.5396
1012 1 7.66614 16.8733 76.2679
1083 1 10.427 14.7634 78.5359
1085 1 17.1085 14.4392 78.0579
1087 1 22.779 14.7893 76.3984
1088 1 27.0246 16.8803 77.6099
1090 1 31.3975 16.618 78.4814
1091 1 33.5203 15.2575 75.4699
1010 1 1.0337 16.6727 77.57
1097 1 10.5439 19.0746 78.4359
1099 1 16.9682 19.1598 77.4469
1101 1 22.5118 19.5116 76.1033
1024 1 1.65373 21.3053 77.836
1039 1 4.04092 23.6606 75.3467
1026 1 7.6667 21.3892 77.1005
1111 1 11.1974 24.0509 79.1314
1113 1 16.0201 23.8055 77.5934
983 1 3.84702 6.04862 75.7581
985 1 10.0987 5.85232 73.9826
2173 1 2.47762 28.0177 60.0215
923 1 33.5268 5.95524 64.7902