ITEM: TIMESTEP
330000
ITEM: NUMBER OF ATOMS
16000
ITEM: BOX BOUNDS pp pp pp
2.6395392752892377e-01 1.0193604607247420e+02
5.7537000986851723e+00 9.6446299901311562e+01
-5.1157614989022306e+00 1.0731576149889929e+02
ITEM: ATOMS id type x y z
147 1 16.2993 5.93032 5.08581
6 1 14.9278 8.24938 -4.0269
8 1 19.6728 7.67397 -3.51933
10 1 24.7036 7.9096 -2.92591
12 1 29.1867 7.66839 -2.17389
14 1 32.9816 6.93346 -1.45798
85 1 3.4931 9.86027 -3.04926
87 1 7.9395 10.2855 -2.66382
89 1 12.32 10.3416 -1.68085
20 1 14.8841 12.7855 -4.76539
22 1 19.222 12.2729 -3.68186
24 1 23.9038 12.492 -3.2666
26 1 28.2326 12.4921 -2.8591
28 1 32.3339 12.1558 -2.17886
99 1 3.30337 14.5478 -3.41148
101 1 7.95123 14.6169 -2.56795
38 1 24.1696 17.1142 -3.03586
40 1 28.1688 17.4372 -3.02498
42 1 32.5885 17.0141 -2.23457
113 1 3.52253 19.0894 -3.39553
115 1 7.56825 19.1962 -2.61351
34 1 14.6884 17.2589 -3.87532
36 1 20.1286 17.6151 -3.72819
10982 1 0.433727 21.7925 6.53665
127 1 3.3567 23.8871 -3.21581
129 1 7.85974 23.7946 -2.06824
4 1 10.0273 7.81717 -4.96022
131 1 12.1829 23.9939 -1.61783
48 1 14.8475 21.2013 -4.35799
50 1 19.1806 21.8424 -3.65144
52 1 24.4022 22.0774 -3.15495
54 1 29.0111 21.3612 -2.52534
56 1 32.8241 21.6269 -1.77454
62 1 14.5376 25.8273 -4.67509
64 1 18.787 25.7872 -3.75183
66 1 23.5084 26.3876 -3.52389
68 1 28.0883 25.9477 -2.95071
70 1 32.6668 26.2772 -2.22997
10878 1 0.798356 7.92795 -0.262884
72 1 5.29189 7.86078 0.66279
74 1 10.1052 7.78841 0.725327
76 1 14.8235 8.21817 1.48184
10891 1 0.887962 12.4185 -0.248624
86 1 4.88383 12.4975 0.335698
88 1 9.58331 12.3583 1.03992
91 1 17.088 10.5026 -0.801619
93 1 21.5725 10.0045 -0.182322
95 1 26.0395 9.91896 0.554358
97 1 30.1341 10.2374 0.994603
100 1 5.08802 17.2614 -0.017436
103 1 11.8188 14.2523 -1.87663
104 1 14.5579 16.8381 2.03027
105 1 17.1076 15.0864 -0.611731
107 1 21.5378 14.6749 -0.243993
109 1 25.5944 14.7085 -0.363189
111 1 29.8577 15.0081 0.617399
10904 1 1.0753 16.9062 -0.190751
102 1 9.23065 16.7731 1.28584
117 1 11.9561 19.3096 -1.25924
119 1 16.7014 19.1192 -0.872291
121 1 21.6994 19.5259 -0.534535
123 1 25.7179 19.2967 0.156591
125 1 30.4445 19.626 0.721204
10917 1 0.744556 21.7414 -0.783583
114 1 5.10951 21.8407 0.404432
116 1 9.34704 21.5887 1.91056
118 1 13.9679 21.5705 1.64692
133 1 16.8643 23.8746 -1.13497
135 1 21.3719 23.9936 -0.221887
137 1 26.0199 23.4501 0.375981
139 1 29.6728 23.4948 1.18377
10930 1 0.912347 25.6426 -0.719586
128 1 5.14154 26.4608 0.346428
130 1 9.84914 26.2104 1.64456
132 1 14.3125 26.3821 1.8463
395 1 6.0385 19.3278 22.5179
10995 1 0.295973 26.4568 6.18995
153 1 30.2595 6.14166 7.21594
78 1 19.3531 8.28653 2.80535
80 1 23.362 7.98121 3.59125
82 1 27.8554 8.16334 3.64019
84 1 32.4988 7.84356 4.56892
155 1 2.52871 10.6469 3.14404
157 1 7.02881 9.86507 3.73073
90 1 14.0043 12.4922 1.95403
159 1 11.5672 9.88036 4.43186
92 1 19.2144 12.985 2.69841
161 1 16.7396 10.4952 4.93688
94 1 23.4552 12.6669 3.42335
96 1 28.1414 12.0686 3.76439
98 1 32.5245 12.1446 4.6026
169 1 2.75695 14.5947 3.17721
171 1 6.7394 15.1145 3.69806
173 1 11.2934 14.561 4.7182
175 1 16.1644 15.1623 5.1558
108 1 23.6823 17.2997 3.06207
112 1 32.2586 16.2785 3.93494
183 1 2.82101 19.5842 3.07015
185 1 7.18794 19.4509 4.46184
187 1 11.8719 19.1991 4.24777
189 1 16.4803 19.8575 5.02636
106 1 19.163 16.9379 2.51164
110 1 27.837 16.758 3.42093
197 1 2.61426 24.3764 3.63906
199 1 6.65182 24.2355 4.1557
201 1 12.2364 23.6899 5.0305
120 1 18.6994 21.7505 2.30916
122 1 23.1856 21.486 3.28257
124 1 27.6862 20.6571 4.33171
126 1 32.1099 21.6902 4.20991
381 1 5.53781 15.1247 22.5574
134 1 18.8479 26.45 2.21847
136 1 23.5403 26.0738 3.22161
138 1 27.923 26.6945 3.11184
140 1 32.2911 26.3214 4.22599
142 1 5.374 8.25503 6.75257
144 1 9.76417 8.16698 7.36522
146 1 14.1573 7.77353 7.71741
148 1 18.6305 8.23765 8.66781
5835 1 33.6031 19.2547 14.0148
156 1 4.6261 12.5103 6.92495
158 1 8.7799 12.7354 7.12543
160 1 13.5673 12.3935 7.735
163 1 20.5819 10.9643 5.98599
165 1 25.8786 10.1758 6.23917
167 1 30.3914 10.098 7.32321
219 1 20.0646 6.10183 11.9397
176 1 18.41 17.3737 8.46468
177 1 20.5418 15.3652 5.96636
179 1 25.6011 14.7691 6.16883
181 1 29.4652 14.7854 7.41853
170 1 4.36886 17.0535 6.50064
172 1 8.82463 17.3775 7.403
174 1 13.2139 17.1096 8.08508
191 1 20.1658 20.5637 5.98281
193 1 24.6363 19.3645 7.01115
195 1 30.0071 18.7761 7.14333
283 1 6.43994 6.50145 16.0299
267 1 2.59209 23.9335 9.66266
184 1 4.40097 21.7415 6.91354
186 1 8.96589 22.1977 6.59543
188 1 13.4554 21.3387 7.81018
203 1 15.9835 24.2783 5.00456
190 1 17.9516 22.1005 8.77673
205 1 20.7838 24.1575 5.50964
207 1 25.9471 23.7538 6.24362
209 1 30.07 23.8675 6.79501
77 1 17.4012 5.80408 -0.356615
198 1 5.01218 26.5133 6.50823
200 1 9.8298 25.9311 7.36831
202 1 13.8115 25.8963 7.85159
10943 1 0.891054 7.83988 5.67715
5757 1 34.1613 15.2454 8.21738
5848 1 34.0644 23.6987 14.0446
383 1 9.90714 14.9469 22.9966
5718 1 34.2744 24.2775 1.66256
150 1 23.2053 8.03702 9.04843
152 1 27.8011 7.96767 9.65527
154 1 32.2048 7.64918 10.833
225 1 2.35606 10.0319 9.55164
227 1 6.87092 9.73249 10.2811
229 1 11.4509 10.5793 10.4327
162 1 18.3168 12.7455 8.70261
231 1 15.7749 10.6451 11.0993
164 1 22.8628 12.2749 9.00829
233 1 20.3375 10.0946 11.9839
166 1 27.3732 12.6307 9.91832
168 1 31.8257 12.4013 10.8842
239 1 1.45248 14.5077 9.93235
241 1 6.31626 14.6836 10.1309
243 1 10.9086 14.7339 10.7093
245 1 15.5016 14.6697 11.2753
178 1 22.9216 16.8491 9.24047
247 1 20.4754 14.5794 12.4551
182 1 31.94 17.1423 10.5734
253 1 2.11704 19.0752 9.95979
255 1 7.00763 19.3717 9.8899
257 1 11.3188 19.4451 10.8078
259 1 15.8013 19.3842 11.3212
261 1 20.4693 19.2878 12.3306
180 1 26.7379 17.4201 10.0404
269 1 6.54341 23.9797 10.318
271 1 11.3028 24.2748 10.8235
273 1 15.8056 23.8276 11.4149
275 1 20.3932 23.2906 11.8526
192 1 22.7372 21.9583 9.12462
277 1 24.9001 24.0042 12.6368
194 1 27.5185 21.842 9.83162
196 1 31.5269 21.6793 10.5887
204 1 18.4153 26.0005 8.49937
206 1 22.9566 25.8797 8.81578
208 1 27.4664 26.4322 9.73479
210 1 31.9476 25.7668 10.7427
281 1 1.49564 6.18699 16.3615
212 1 4.00796 7.66977 13.4822
214 1 8.78239 8.01815 13.3672
216 1 13.143 8.33817 14.3168
218 1 17.4076 8.23012 14.8895
10969 1 0.302734 17.1609 6.02371
71 1 3.54317 6.0572 -3.20939
5809 1 34.0008 10.3387 14.5483
226 1 4.092 12.4231 13.0445
228 1 8.1752 12.7049 13.144
230 1 12.7158 13.1146 14.1658
232 1 17.1749 12.1781 14.5558
234 1 22.417 12.4424 15.2755
235 1 24.6303 9.97787 12.6597
236 1 26.1872 12.4142 16.3267
237 1 29.323 10.2536 13.2417
309 1 1.76881 14.5063 15.7655
248 1 22.405 17.0912 15.7701
249 1 24.5401 14.6517 12.6388
251 1 29.176 15.053 13.3495
1753 1 5.85982 28.4204 22.805
252 1 31.266 17.4776 16.5125
323 1 1.61202 19.3075 16.4039
240 1 3.63712 16.8903 13.124
242 1 8.50638 17.5781 13.1029
244 1 13.465 17.0795 14.3299
246 1 17.4599 16.885 15.1134
263 1 24.6926 19.3685 12.7182
265 1 29.2256 19.3886 13.4731
254 1 3.36194 21.4617 12.6275
256 1 8.26128 21.8934 13.2623
258 1 12.7823 21.6784 14.2105
260 1 17.3638 21.6608 14.6618
262 1 22.1187 21.7313 15.6398
279 1 29.3892 24.008 13.2484
264 1 26.7096 21.888 16.4963
308 1 30.3253 12.9984 22.9655
268 1 4.16884 26.0187 13.1795
270 1 8.6756 26.1894 14.029
272 1 13.3473 26.0887 14.1865
274 1 17.9301 26.3663 14.4638
5770 1 33.7232 19.1141 7.63457
276 1 22.5153 25.7267 14.8487
5822 1 34.1137 15.1492 14.3238
282 1 3.78943 8.21594 19.6256
348 1 26.1866 27.0309 22.5563
220 1 21.95 8.17231 15.9184
222 1 26.774 7.62748 15.9242
224 1 31.4345 8.17945 16.8954
295 1 1.48173 10.298 16.303
296 1 3.28819 12.9355 19.1562
297 1 6.10808 11.0026 17.0666
299 1 10.8765 10.7557 16.8273
301 1 15.0682 10.2832 17.5299
303 1 19.7099 10.7813 18.1736
305 1 23.7575 10.132 18.5695
307 1 28.1919 10.1841 19.7892
238 1 30.9088 12.6773 16.8877
311 1 6.55155 15.4298 16.3732
313 1 11.1225 15.4756 17.1787
315 1 15.5141 15.0304 17.9038
317 1 20.1961 15.111 18.3145
319 1 24.0247 14.8395 19.3634
250 1 26.8281 17.0111 16.1368
321 1 28.7651 14.7857 19.5379
310 1 3.43695 17.2546 19.0695
325 1 6.43682 19.4467 15.8847
327 1 10.8533 19.2476 16.3611
329 1 15.4168 19.26 17.4132
331 1 19.9082 19.3509 18.1476
333 1 24.3978 19.2157 19.4645
335 1 29.017 19.1434 19.6189
324 1 3.43738 21.2024 20.1573
337 1 1.79298 23.4175 16.2333
339 1 5.66732 23.5267 16.3891
341 1 10.7539 23.9413 16.6734
343 1 15.4012 24.3163 17.984
345 1 19.7817 23.9848 17.7895
347 1 24.2774 24.891 18.8663
349 1 28.7034 23.9373 20.3589
266 1 31.0659 21.3529 17.0618
285 1 11.0729 5.91553 17.0369
141 1 3.25138 5.99464 3.10638
278 1 26.8032 26.2769 16.4357
79 1 22.0067 6.15007 -0.520321
409 1 5.98734 24.0173 22.7538
280 1 31.309 26.0826 17.1508
221 1 25.0653 6.2314 12.8831
284 1 8.75201 8.24606 19.5546
286 1 13.0285 7.79618 20.4454
288 1 16.8094 8.52519 20.8115
290 1 21.4169 7.97039 21.5367
292 1 26.234 7.86515 22.1182
346 1 21.6025 25.7691 21.6154
365 1 0.754945 9.83962 22.007
367 1 5.73925 10.3192 22.2182
298 1 8.62015 12.9393 19.7974
300 1 13.1361 12.4649 20.203
302 1 17.6333 13.1281 21.7835
306 1 26.8395 12.7203 22.4071
289 1 19.3839 5.98971 18.2628
5874 1 33.0971 10.6525 20.0291
379 1 0.792664 15.1662 22.4368
336 1 30.9393 21.3836 22.9649
369 1 9.94653 10.3925 22.8683
304 1 21.7364 12.6831 22.0791
318 1 21.7531 17.327 22.8032
5887 1 33.6032 14.8762 19.8581
393 1 1.1902 18.8581 22.2336
293 1 28.7905 6.16312 19.5866
312 1 8.17679 17.2356 19.7292
314 1 12.9756 17.1215 20.0282
316 1 17.5856 17.1728 21.0485
320 1 26.3373 16.8171 21.9487
5900 1 32.767 19.3471 20.1103
1475 1 12.2472 28.4908 -1.95085
407 1 1.44643 24.2259 21.8993
211 1 2.92798 6.23307 9.66014
326 1 8.45357 21.2106 19.5936
328 1 12.761 21.4986 20.5573
330 1 17.2648 21.6213 21.1401
332 1 22.1402 21.7841 21.2957
334 1 26.4393 21.5273 22.7262
149 1 21.4112 6.01015 6.2529
5913 1 33.3251 24.1094 20.144
338 1 3.62438 26.5204 19.2188
340 1 8.64437 26.1183 20.1965
342 1 12.9407 25.6648 20.52
344 1 17.4942 26.3739 20.8654
1693 1 28.3936 28.4211 19.5076
1681 1 1.54933 28.2082 15.6365
411 1 10.2267 23.3333 23.0048
145 1 12.345 5.76581 4.52698
1683 1 6.57862 27.9447 16.5106
5861 1 33.3731 6.34183 20.1319
351 1 0.367768 6.09598 21.9037
1619 1 20.2635 28.2158 11.9594
1551 1 25.1003 28.19 6.71
1689 1 20.1412 28.1978 18.1036
1549 1 21.0361 28.2171 6.48966
7096 1 33.523 28.2715 14.2145
1751 1 1.12165 28.1968 21.6865
1483 1 30.1769 28.3185 0.697468
1553 1 29.647 28.3017 7.12339
217 1 16.112 5.96549 11.58
350 1 30.773 26.1985 22.8773
352 1 3.13012 8.00248 25.1438
354 1 7.68413 8.57574 25.6932
356 1 11.8316 8.23033 27.026
358 1 16.1728 8.74461 27.5883
5991 1 32.3683 6.05391 32.8216
294 1 30.4507 8.28866 23.2689
366 1 2.73353 12.3783 25.3006
368 1 7.4472 12.6912 26.11
635 1 7.77389 5.7627 48.6485
371 1 14.2899 10.7542 23.8406
373 1 18.5018 10.388 24.6622
375 1 23.5475 10.3608 24.8753
377 1 27.5182 10.6796 26.1215
5939 1 32.2578 10.5289 26.4066
385 1 14.339 15.1679 24.0779
387 1 19.0409 15.2588 24.8402
389 1 23.8814 14.9726 25.3115
391 1 28.4871 15.1728 25.9287
5952 1 32.6781 15.1411 26.2835
380 1 2.80709 17.0441 25.3447
382 1 6.99576 16.7849 26.2443
357 1 14.3236 6.04596 24.0414
399 1 14.8455 19.1496 24.1687
401 1 18.9828 19.6545 23.9832
403 1 24.0871 18.9551 25.4453
405 1 27.6889 19.3202 25.7947
394 1 3.27087 21.7138 25.0394
396 1 7.68393 21.7347 26.2698
6160 1 33.9104 19.4358 41.4346
413 1 14.8565 24.0411 23.9832
415 1 19.4137 23.7285 24.9623
417 1 23.8633 23.743 24.471
419 1 28.0302 23.9576 25.7143
5978 1 32.7445 23.8016 26.3406
408 1 3.18521 26.3433 25.638
410 1 7.65811 26.0286 26.538
2043 1 28.9227 27.8728 46.9323
477 1 0.596619 23.2999 28.4657
495 1 8.92826 6.11709 35.8427
6147 1 34.1726 14.8699 41.3854
1967 1 13.0216 28.3097 42.7239
360 1 20.7219 8.54079 27.613
362 1 25.3973 8.08175 28.3126
364 1 29.8867 7.68384 29.2833
322 1 30.8965 16.8302 23.2872
437 1 4.77064 10.4606 28.9969
439 1 9.38137 9.61788 29.7414
370 1 11.5783 12.7345 26.7197
372 1 16.5162 13.1046 27.9544
374 1 20.9327 12.4711 28.1585
376 1 25.3821 12.7798 28.4462
378 1 29.9708 12.2278 29.1346
634 1 5.29567 8.14381 50.7082
451 1 4.83227 15.2321 29.1183
453 1 9.58532 14.6723 29.6386
455 1 13.8332 14.8031 30.2152
388 1 21.169 17.0732 28.687
392 1 29.8367 17.939 28.8195
463 1 0.683146 19.418 28.2249
465 1 4.35306 19.6196 28.9755
467 1 9.18717 19.4295 29.1786
384 1 11.6997 17.1571 27.0284
469 1 14.2299 19.0418 30.0871
386 1 17.2309 17.1448 27.6392
390 1 25.7861 17.221 29.3204
5965 1 32.8919 19.6013 26.7106
565 1 8.39796 5.78787 41.2685
479 1 4.93275 24.2307 28.6812
481 1 9.20191 23.3978 29.8396
398 1 12.4299 21.1251 26.2827
400 1 16.8825 21.8768 27.5684
402 1 21.4606 21.3552 27.5377
404 1 25.8808 21.9589 28.3267
406 1 29.7077 21.9178 29.2456
412 1 11.6514 26.2224 26.7541
414 1 16.3936 26.508 27.3123
416 1 20.9753 26.3156 28.451
418 1 25.6148 26.1452 27.9915
420 1 30.0699 26.4674 29.3647
422 1 2.51478 7.96928 31.7219
424 1 6.77489 7.75639 32.3035
426 1 11.5359 7.82875 32.5844
688 1 0.633712 26.341 49.872
431 1 22.7557 5.99001 31.0918
493 1 4.26077 6.14404 35.8204
438 1 6.79252 12.2651 32.281
441 1 13.9244 10.9553 30.3327
440 1 11.4483 12.5126 32.566
443 1 18.1967 10.2304 31.3732
445 1 23.0523 10.739 31.904
447 1 27.7147 10.2815 31.4924
6004 1 31.9165 10.8454 32.4961
436 1 2.47864 13.004 31.3236
457 1 18.0433 14.5058 31.3093
456 1 15.8804 17.1507 33.9498
459 1 23.3141 14.7842 32.1177
461 1 28.0766 14.7418 31.7496
6017 1 31.8545 15.2507 32.2255
450 1 2.20137 17.4043 32.1261
452 1 7.22399 17.0101 31.7265
454 1 11.2416 17.2444 32.7503
471 1 18.8595 19.3174 30.9524
473 1 23.1804 19.3198 31.4792
475 1 27.879 19.512 31.6318
6030 1 32.0284 19.4211 32.5618
464 1 2.71281 22.4336 32.3285
466 1 6.37165 21.7126 32.4923
468 1 11.0651 21.6006 32.7211
483 1 13.8905 23.6839 29.9228
485 1 18.4642 23.9931 30.6948
470 1 16.1851 21.3165 33.62
487 1 22.6404 23.7835 31.2146
489 1 27.94 24.0835 32.7434
6043 1 31.7924 23.9942 32.8293
478 1 2.12603 26.6499 31.6787
480 1 6.77184 26.4627 32.2377
482 1 11.5056 26.4001 32.772
639 1 17.3537 5.96819 49.2113
499 1 17.9108 5.81136 37.4367
700 1 32.7087 25.8852 48.8702
355 1 9.88151 5.96442 23.5328
633 1 3.07654 6.27351 47.6934
363 1 28.4255 6.0249 25.8145
503 1 26.4661 6.32152 38.2781
428 1 15.264 7.46662 33.7361
430 1 21.0058 7.99913 34.2126
432 1 25.1104 7.8702 34.6144
434 1 29.8186 7.83849 35.5781
507 1 4.30422 10.1468 35.2014
509 1 8.34362 10.1669 35.3055
511 1 13.2154 9.92738 36.4152
442 1 15.6061 12.075 34.4909
513 1 17.8321 9.96661 36.9348
444 1 20.8213 12.5149 34.4898
446 1 25.445 12.3166 35.0137
448 1 29.6368 12.4804 35.005
6069 1 33.4665 10.2513 36.9564
521 1 4.47674 14.6868 35.1634
523 1 8.69864 14.6928 35.8457
525 1 12.8832 14.7347 36.4629
527 1 17.8688 14.8545 37.4106
460 1 24.6955 17.6194 35.0217
6082 1 32.5608 14.7855 36.9376
535 1 4.38327 19.495 35.0115
537 1 9.05684 19.3265 35.4244
539 1 12.9389 19.633 36.5863
458 1 20.6863 17.0807 34.8101
462 1 29.336 17.0692 35.561
6095 1 32.6192 18.815 37.2773
549 1 4.14477 24.4487 35.1488
551 1 8.35309 24.44 35.5136
553 1 13.5887 24.2041 36.1235
555 1 17.5425 24.3672 36.9972
472 1 20.2682 21.6738 34.5429
474 1 24.4237 22.052 35.1901
476 1 29.1248 21.3513 35.649
686 1 32.511 21.2357 48.4361
484 1 16.1426 26.0912 33.5
486 1 20.2099 26.2514 34.35
488 1 24.6531 26.5369 34.5501
490 1 29.2587 25.923 35.9168
492 1 1.69301 8.29027 38.7325
494 1 6.40943 7.99634 38.4695
496 1 11.1502 8.14498 39.2488
498 1 15.9038 8.06601 39.9411
500 1 19.9134 8.32213 40.5388
1963 1 3.9513 28.1406 40.9808
504 1 30.4791 7.60465 39.5305
506 1 2.48648 12.6664 37.7141
508 1 6.65793 12.6047 38.7484
510 1 11.3689 12.8972 39.5786
512 1 15.2883 12.5345 39.8846
515 1 22.9528 10.4128 37.8306
514 1 19.9255 12.4607 40.4045
517 1 27.614 9.80858 38.3424
518 1 30.2769 12.3125 39.6552
520 1 1.74818 17.361 38.2358
529 1 22.519 14.7005 37.4296
531 1 26.6229 14.447 37.9532
532 1 30.0676 16.791 40.3048
522 1 6.30526 17.4309 38.7439
524 1 10.9622 17.2405 39.0747
541 1 17.7879 19.6428 37.2685
526 1 15.5409 17.1942 39.4829
543 1 22.5438 19.6692 37.8492
545 1 26.6782 19.3178 38.2261
534 1 1.85409 22.0042 38.2457
536 1 6.45021 21.9247 38.4827
538 1 11.0649 21.8236 38.8882
540 1 15.0329 21.9346 40.0652
557 1 22.4551 24.0401 37.9464
559 1 26.8354 24.4241 38.2924
6108 1 32.9383 23.4575 37.2624
546 1 30.3204 21.8349 40.0316
548 1 2.03043 26.1598 38.0605
550 1 6.82501 26.4686 38.5525
552 1 11.2076 26.0238 38.9672
554 1 15.8307 26.4501 39.5148
556 1 19.3288 26.6512 40.9281
648 1 5.36831 12.3848 50.7905
560 1 30.8891 26.3505 39.8457
684 1 26.3781 21.6164 50.492
697 1 22.7984 23.852 48.1874
571 1 21.8244 6.05871 43.5344
502 1 24.9346 8.1918 41.4003
505 1 0.341951 10.0526 34.4055
427 1 14.0146 6.18499 30.1723
576 1 1.38094 12.7584 44.5543
577 1 4.32263 11.0363 41.4881
579 1 8.36748 10.3252 42.1032
581 1 12.9674 10.525 42.4582
583 1 17.5702 11.2402 43.2259
585 1 21.9307 10.4537 43.6222
516 1 24.6319 12.5821 40.7641
587 1 28.1493 10.0244 42.8603
637 1 12.7052 5.81587 48.9014
588 1 31.6678 12.4905 44.3338
591 1 3.84937 15.0281 41.5182
593 1 8.10829 15.0909 42.2792
595 1 12.5119 15.4428 42.4873
597 1 17.369 15.2866 43.3747
599 1 21.8984 15.1094 43.4338
530 1 24.0886 16.978 40.4842
601 1 27.9279 14.5136 42.6786
605 1 3.77464 19.3049 41.4021
607 1 8.99524 19.6978 41.8168
609 1 13.1329 19.9256 42.4359
611 1 17.0817 19.5881 43.2056
528 1 20.2643 17.4673 40.3261
615 1 28.1164 19.7005 42.639
619 1 3.76785 23.4828 41.2888
621 1 8.29473 24.4638 42.1022
623 1 12.9248 24.1175 42.9381
625 1 17.0416 24.3102 43.3524
542 1 19.6221 21.9656 40.5437
627 1 21.3466 23.3984 43.7649
544 1 24.2718 21.464 40.9207
629 1 28.0575 23.75 42.2553
698 1 26.5521 26.3245 50.1603
616 1 31.1732 21.5786 44.5058
695 1 16.6996 24.1334 50.1396
558 1 24.0841 26.1653 41.3473
562 1 1.62811 8.35562 43.7126
564 1 5.96107 7.86345 44.706
566 1 10.5293 8.09448 45.3704
568 1 15.2193 8.3132 45.7796
570 1 20.1119 8.25012 46.2042
572 1 25.3089 8.01413 45.6936
693 1 11.9562 24.1202 49.3526
574 1 31.9845 7.71927 44.2585
647 1 3.22039 10.7376 47.3297
578 1 5.67838 12.6389 45.1247
580 1 10.4407 12.6378 45.6635
582 1 15.0285 13.1724 45.8663
584 1 20.1589 13.1091 46.5395
586 1 25.3948 12.8105 45.5753
657 1 29.3644 9.81713 47.5074
590 1 1.16948 16.8031 44.3032
661 1 3.93538 15.3965 47.5183
592 1 6.89167 17.851 44.7545
596 1 15.097 17.3807 45.8153
598 1 19.8325 17.8856 46.6212
671 1 29.5326 14.5549 47.1475
594 1 10.5699 17.2946 45.4093
613 1 21.6694 19.5144 43.8206
600 1 25.3072 16.8391 45.0385
685 1 28.5438 19.308 47.6016
602 1 31.4258 16.875 44.5303
604 1 1.69692 21.5106 44.9019
606 1 6.05991 21.4986 44.9837
608 1 10.7333 22.037 45.3715
610 1 14.5821 21.834 46.6168
612 1 18.6945 21.7039 46.8633
614 1 25.3222 21.4047 45.1389
699 1 28.4846 23.2744 46.9155
618 1 1.56985 26.1281 44.5543
620 1 5.61781 26.0932 44.7528
622 1 10.2467 25.6157 45.683
624 1 14.7636 26.4099 46.7805
626 1 19.5351 26.1544 46.8659
628 1 25.1342 25.9807 45.1651
630 1 31.8381 26.1524 43.5544
632 1 0.525391 8.29748 50.4539
423 1 5.19908 6.21572 29.0211
429 1 18.5298 5.89802 30.6375
573 1 28.0666 6.12978 43.0233
642 1 26.8094 8.67486 50.2242
2035 1 7.4799 28.269 48.3565
644 1 33.1221 8.0156 48.7421
646 1 1.19695 12.7022 50.1269
497 1 14.0074 5.96085 37.2457
649 1 7.85414 10.6725 48.0088
651 1 12.141 10.4814 48.1892
653 1 17.5087 10.7653 48.9794
655 1 23.0921 10.8534 48.1067
656 1 26.9196 12.794 50.1747
658 1 33.0243 12.0415 48.8988
663 1 8.37678 15.3162 48.5275
665 1 13.1513 14.9688 48.9018
667 1 17.1844 15.1616 49.4139
7291 1 32.4106 28.1759 33.3219
670 1 27.2388 17.2516 50.0819
669 1 23.6945 14.5572 48.8229
7356 1 33.3032 28.0973 37.0751
675 1 3.5461 19.594 47.8648
677 1 7.63857 19.9483 48.1662
679 1 12.3121 19.3969 48.6789
681 1 17.0643 19.6459 49.4369
683 1 23.3096 19.1753 48.6655
672 1 32.4216 16.8079 48.8223
674 1 0.673479 21.8144 50.7224
689 1 4.02978 24.2371 47.9887
691 1 7.94922 23.6523 48.8171
640 1 20.7133 7.9392 50.8154
1825 1 9.68619 28.1437 29.6797
1827 1 14.3487 28.4803 29.9597
421 1 0.838204 5.73443 28.5334
359 1 19.2863 6.13263 25.2885
397 1 10.1169 18.7982 23.3719
6056 1 33.2725 5.8161 37.5115
2041 1 23.4138 27.9138 48.5718
1895 1 9.16358 28.4287 35.6038
1973 1 27.9844 28.3635 42.9627
1761 1 23.1555 28.252 25.3756
433 1 27.7929 6.31563 32.2243
1897 1 13.125 28.1232 36.3236
1755 1 10.3054 28.3467 23.1794
501 1 22.5771 5.91401 37.7876
668 1 20.5568 17.3385 51.0447
636 1 9.72401 8.40185 51.5916
638 1 14.4382 8.32421 51.42
756 1 33.5147 21.7365 52.9791
712 1 27.7752 7.56607 54.7357
703 1 2.36848 5.94415 54.2946
985 1 9.38665 6.20995 74.3234
717 1 2.46676 10.6362 53.9918
719 1 7.20152 10.1049 54.3532
650 1 10.1404 12.519 51.7678
652 1 14.2569 12.7524 51.962
723 1 18.0674 10.2545 53.4466
917 1 14.8879 5.77355 68.3578
725 1 23.6326 11.1386 52.7639
727 1 30.6583 10.5765 51.7062
726 1 27.7097 12.0789 54.7675
923 1 33.4664 5.97473 65.1972
731 1 2.8273 14.6663 54.1715
682 1 20.6487 21.9518 51.2913
733 1 7.27828 14.6319 54.7399
664 1 9.73064 17.2159 51.5143
737 1 18.0835 14.5745 53.9119
739 1 24.3262 15.0959 53.34
740 1 27.4533 16.779 54.8127
741 1 30.4031 14.3699 52.0034
745 1 2.62163 18.9201 54.58
666 1 14.9095 17.7043 52.3999
751 1 17.7061 19.7289 54.1394
753 1 24.4467 19.5743 53.1621
755 1 30.2566 19.2501 51.9761
759 1 2.40967 23.4537 54.661
761 1 7.16361 23.8715 54.7304
742 1 34.1157 16.8554 53.2802
678 1 9.93318 21.6691 51.5535
680 1 14.2871 22.1068 53.1212
765 1 18.0032 24.3397 54.1681
767 1 23.8449 23.5626 52.8823
769 1 29.8854 24.0971 51.1782
779 1 19.0117 6.24934 58.3344
1090 1 31.4617 17.236 78.5173
692 1 9.55009 26.3893 51.8364
694 1 14.3067 26.4752 52.1367
1076 1 31.6945 12.6465 78.1377
768 1 27.6703 26.2433 54.2049
1114 1 20.6038 25.6999 78.9969
704 1 4.60164 7.77931 56.9784
706 1 9.33547 7.38888 57.8724
654 1 20.6973 13.6599 51.2464
708 1 15.7471 8.04717 56.9986
710 1 21.3866 7.89657 55.5422
989 1 21.8528 5.87656 71.9337
718 1 4.43905 12.3434 57.1067
720 1 9.09823 12.2965 57.8943
721 1 11.9874 10.2593 55.1094
722 1 15.7014 12.733 56.538
724 1 21.4615 12.5212 55.9264
795 1 25.2864 9.79716 57.0122
797 1 31.9537 10.2428 56.2018
732 1 4.51175 16.8785 57.6045
735 1 11.8402 15.023 55.0253
738 1 21.3948 17.0692 55.7222
809 1 24.9455 14.663 57.6697
811 1 31.2221 14.7925 56.2387
1118 1 31.5378 26.4605 78.6515
747 1 7.09031 19.2316 54.7253
734 1 9.13921 17.3688 58.2895
749 1 11.6983 19.6621 54.9963
736 1 14.5322 16.9858 56.2348
823 1 24.7863 19.18 57.7127
825 1 31.193 19.4753 55.855
1116 1 26.9347 26.3122 77.592
746 1 4.77716 21.8521 57.4427
748 1 8.47577 21.9149 58.125
763 1 11.6943 24.4689 55.6379
750 1 15.6776 22.2666 56.8533
752 1 21.6285 21.7025 55.5937
837 1 25.229 23.8526 57.4951
754 1 27.6113 21.5469 54.214
839 1 31.2074 24.369 55.5991
760 1 4.47845 26.1069 57.544
762 1 8.69074 25.923 57.8209
764 1 15.2612 26.5257 57.0553
766 1 21.205 26.1837 55.9063
2389 1 22.0943 28.095 71.9731
711 1 24.6247 6.19203 52.7446
676 1 4.65389 21.1144 51.2131
778 1 16.498 7.76492 60.8267
780 1 22.3412 7.53671 59.965
782 1 28.7821 7.78327 59.1603
787 1 2.22632 10.3967 59.8446
789 1 6.5214 9.74891 60.6139
791 1 12.4295 10.0103 59.8363
792 1 16.2363 11.8857 60.8478
793 1 19.2893 10.021 57.9807
794 1 22.7646 12.2592 59.9511
865 1 26.5816 10.0928 61.6772
796 1 28.2353 12.6193 59.251
867 1 31.8368 10.0854 60.754
801 1 2.32774 14.4175 60.4525
803 1 6.72857 14.4842 61.1369
805 1 12.8432 14.7718 59.6483
807 1 18.5874 15.2742 58.6304
808 1 22.1876 16.7404 60.4193
810 1 28.8388 17.1591 58.9677
881 1 32.0274 14.488 60.921
815 1 2.21995 18.9934 60.1134
817 1 7.05462 19.1099 60.9437
819 1 13.3852 19.3467 59.4984
821 1 18.9396 19.2824 58.3781
895 1 32.0463 19.1839 60.4019
829 1 2.09836 23.9959 60.2284
831 1 6.46018 23.748 60.8143
818 1 10.1936 21.0895 62.3121
833 1 12.4275 23.4664 59.5177
820 1 16.2214 21.3513 61.4715
835 1 18.9712 24.0646 58.6313
822 1 22.2496 21.6898 60.4484
824 1 28.6909 21.6145 58.4109
909 1 32.3703 24.04 60.1049
1104 1 31.4135 21.4701 78.8122
834 1 16.4221 25.9322 60.8218
836 1 22.6415 26.4677 60.2814
838 1 28.8427 25.6344 59.1643
1105 1 34.0179 19.5619 76.2517
774 1 4.24536 8.35125 63.5218
776 1 10.2427 7.52803 63.0553
1049 1 33.6679 23.4162 69.6951
850 1 23.3842 7.73255 64.4973
662 1 5.75965 17.0871 51.4574
852 1 29.7591 8.29278 63.7907
788 1 3.88155 12.101 63.7015
790 1 10.0669 12.3627 62.236
859 1 7.76494 10.0214 65.0573
861 1 13.77 9.91866 63.9537
863 1 20.3439 10.0656 62.4428
864 1 23.6079 12.5179 64.4376
866 1 29.157 12.2391 63.7802
937 1 33.2854 10.4703 65.2794
804 1 10.0459 16.418 62.886
875 1 14.098 14.6623 63.8964
877 1 20.1703 14.6024 62.9408
879 1 25.9227 15.0096 61.8242
878 1 24.075 17.8435 64.3807
951 1 33.7205 14.5289 65.0807
802 1 4.00026 16.8552 63.8788
887 1 7.80442 19.3727 65.3512
889 1 13.8748 18.5581 63.985
806 1 16.5823 16.5642 61.4236
891 1 19.9401 19.251 62.5289
893 1 26.5933 19.7689 61.9471
880 1 29.7812 16.7629 63.3794
1033 1 33.0019 19.1803 64.232
816 1 4.02366 21.5628 63.5365
901 1 7.64246 24.099 65.2927
903 1 13.7147 23.387 64.0324
905 1 20.017 23.8235 63.13
907 1 25.7766 23.6861 61.3848
892 1 23.5568 21.4151 64.8035
894 1 29.4338 21.9029 63.2253
964 1 32.4578 23.7798 64.9999
830 1 3.58891 26.1273 63.6679
832 1 9.91726 25.6525 62.4988
906 1 23.6396 26.0214 65.2501
908 1 29.1662 26.2289 63.0861
690 1 4.88147 25.9062 51.503
844 1 5.40892 7.81802 67.2615
846 1 11.9557 8.08198 67.3066
848 1 17.7716 8.07279 65.5913
696 1 20.6686 26.534 51.2341
713 1 30.7749 6.40932 51.604
922 1 30.9747 8.41346 68.0106
857 1 1.5094 10.2181 66.0822
858 1 5.52689 12.291 67.9876
860 1 11.4045 12.853 66.7207
862 1 17.4698 12.3121 65.4069
933 1 21.5105 10.165 67.1819
935 1 26.9759 10.0728 66.3642
936 1 30.8854 12.3011 68.2134
871 1 1.22083 15.0054 66.0303
873 1 7.64343 14.6718 65.694
876 1 17.8669 16.4623 65.7188
947 1 21.3535 14.7567 66.8269
949 1 27.962 14.9955 66.1729
950 1 31.1165 16.9513 68.0258
885 1 1.67764 19.5524 66.6032
872 1 5.25023 17.1206 67.5088
874 1 11.3975 16.8279 67.009
959 1 14.803 19.5942 68.478
961 1 20.952 18.7655 67.6549
963 1 27.087 18.9047 66.5834
899 1 1.27947 24.3283 66.4988
886 1 4.75835 21.9154 68.2251
888 1 11.0211 21.2768 66.5719
973 1 14.7857 23.5755 68.2737
890 1 17.3812 21.0268 65.6236
975 1 21.3162 23.5419 67.1884
977 1 27.3813 23.5777 66.4861
1035 1 30.7361 21.621 67.7008
2177 1 12.4633 28.0725 59.4862
770 1 33.2834 26.4079 53.2864
900 1 4.80237 25.9486 68.211
902 1 11.3727 26.0065 67.0481
2113 1 30.1781 28.0707 51.4132
904 1 17.5275 25.7044 65.3319
978 1 30.8168 26.2655 68.3489
2249 1 20.0175 28.0509 62.7835
1038 1 1.19517 27.0778 78.0348
1042 1 13.6987 25.6533 75.7095
916 1 12.0434 7.5519 71.0096
918 1 18.6935 8.10284 69.8118
1086 1 20.5413 16.8831 79.0233
920 1 24.4793 7.7036 69.1037
1102 1 27.3867 21.5445 78.021
927 1 2.48305 10.2354 69.806
928 1 6.08802 12.733 71.9503
929 1 8.37637 10.3149 69.646
931 1 15.0178 10.4693 68.5646
930 1 12.4759 12.5773 70.8738
932 1 18.755 12.5355 70.0755
1003 1 22.3972 10.4052 71.9489
934 1 25.1227 12.4014 68.9359
1005 1 28.5227 10.6061 70.719
1006 1 32.2934 12.0281 72.6623
941 1 2.35899 14.8461 69.8604
943 1 8.96086 14.913 69.2698
945 1 15.2681 14.8677 68.5757
944 1 12.083 17.2081 71.3964
946 1 18.3853 17.488 70.2929
1017 1 22.4806 14.0938 71.8801
1019 1 28.7596 14.3702 70.8241
955 1 2.23705 18.9919 71.9003
957 1 8.18866 19.5138 70.131
1031 1 22.3554 19.253 71.8184
948 1 24.7739 17.006 69.0167
1020 1 28.1369 18.9808 70.3857
969 1 2.66056 23.5825 70.9171
971 1 8.6993 24.113 69.5986
958 1 12.1486 21.8471 71.4493
960 1 18.4179 21.3118 70.1615
1045 1 22.2418 23.4104 71.8566
962 1 24.4576 21.5259 69.2821
1047 1 28.3183 23.9134 70.9348
1034 1 31.9232 21.0256 72.4871
2317 1 15.1435 28.2264 68.4889
970 1 6.14382 26.3776 72.3849
972 1 12.834 25.8602 71.1428
974 1 18.6185 25.8691 69.8169
1115 1 23.0619 23.8719 76.4747
976 1 24.4639 25.9605 69.1639
2391 1 28.3565 28.0252 70.7397
1048 1 31.802 26.0281 72.1574
914 1 5.83122 8.0865 72.0889
986 1 13.393 7.91743 75.6102
988 1 19.4667 7.95768 74.9648
990 1 25.6192 8.13752 73.0448
2247 1 13.9365 28.0875 63.9065
2183 1 31.3593 28.4315 56.1695
992 1 32.159 7.60191 72.424
997 1 3.60034 10.2602 74.7247
999 1 9.77503 10.251 73.9692
1001 1 15.9043 10.2276 72.7891
1002 1 19.4539 12.8172 74.7106
1004 1 26.3218 12.5047 73.1246
1075 1 29.136 9.52825 75.2419
777 1 12.8658 5.75887 59.4643
1011 1 3.27518 14.9694 74.9867
1013 1 9.47887 14.4646 73.1588
1015 1 15.6803 14.9132 73.0082
1016 1 19.8997 17.0732 74.6028
1089 1 29.8423 14.3114 75.1701
942 1 5.84963 17.1558 72.0683
1025 1 3.05193 18.5894 75.5786
1027 1 9.44036 19.3081 73.8646
1014 1 13.3069 17.4748 75.2936
1029 1 16.0058 19.5993 72.652
1018 1 25.8176 16.339 73.5879
1103 1 28.9219 18.3495 74.7969
1022 1 32.5061 16.6652 72.2731
1039 1 3.64385 24.0526 75.4782
956 1 5.54429 21.5737 72.8109
1041 1 9.5218 23.5139 74.0751
1028 1 13.3387 21.1894 75.8407
1043 1 16.0702 23.8477 73.1345
1030 1 19.5454 21.1209 75.0073
1032 1 25.7956 21.1586 73.7847
1117 1 29.4281 23.904 75.3615
1119 1 33.7534 23.631 75.7266
707 1 11.8725 6.16813 54.8517
1040 1 7.25817 26.0571 76.992
1058 1 20.6587 7.85649 78.9077
1044 1 19.9381 25.7012 74.1274
1046 1 25.6711 26.0994 73.7615
982 1 1.23032 7.78376 77.7902
984 1 7.20542 8.49766 76.7915
921 1 27.0621 5.96517 66.784
1061 1 29.3872 5.84777 74.9991
1060 1 26.3263 7.93214 77.8582
1062 1 31.9964 7.47157 78.1985
996 1 0.523237 12.2584 77.2158
998 1 6.55605 12.3873 76.8743
1069 1 10.8361 11.0311 78.5071
1000 1 13.258 12.7554 75.6067
1071 1 16.7212 10.5802 77.666
2321 1 27.051 28.2123 66.1636
1073 1 23.1987 10.6953 76.3001
1074 1 27.2917 12.5405 77.6168
2459 1 22.8941 28.471 76.6831
2111 1 23.5558 28.29 53.317
1010 1 1.04336 16.5831 78.7369
1012 1 7.13328 16.3569 76.6972
1083 1 10.4361 14.8596 77.793
1085 1 16.5158 15.0496 77.5631
1087 1 23.4764 14.7406 76.4053
2455 1 11.1217 28.3836 78.7194
2457 1 17.393 27.6006 77.4
1097 1 10.4334 19.2005 78.5212
1099 1 16.9535 19.4776 77.3862
2323 1 32.9037 28.2139 65.1232
1101 1 23.3707 19.454 76.2482
1088 1 27.3489 17.2004 78.0257
1024 1 1.1746 21.2257 78.0005
1026 1 6.53918 21.4371 76.8447
1111 1 10.9359 23.7307 78.8697
1113 1 17.2985 23.5149 77.2014
2385 1 9.78376 28.3407 73.8867
2175 1 6.87099 28.0396 61.3974
1059 1 23.4659 5.93097 76.4184
2251 1 26.1563 28.3022 61.829