ITEM: TIMESTEP
310000
ITEM: NUMBER OF ATOMS
16000
ITEM: BOX BOUNDS pp pp pp
3.9535665147018761e-01 1.0180464334853185e+02
5.7518677144455452e+00 9.6448132285551054e+01
-5.2273944649658830e+00 1.0742739446496343e+02
ITEM: ATOMS id type x y z
287 1 16.1821 6.14681 17.3139
211 1 2.77202 5.92534 9.38996
5809 1 34.0173 10.5055 13.5163
6 1 15.1054 7.54515 -4.42071
8 1 19.9265 7.40216 -3.71849
10 1 23.907 7.92517 -3.01381
12 1 28.8262 7.88572 -2.32802
14 1 33.0201 7.67338 -2.19371
85 1 3.50175 10.5435 -2.70847
87 1 8.08684 10.4115 -2.31145
5822 1 33.6236 14.484 13.2843
20 1 15.2711 12.4106 -4.02627
22 1 20.1475 12.0931 -3.73424
24 1 24.0317 12.4393 -3.27715
26 1 28.9093 12.3743 -2.85151
28 1 32.7018 12.4437 -2.06875
99 1 3.66585 15.1748 -2.43506
101 1 7.60951 15.0252 -2.26029
103 1 12.4458 14.6553 -1.64887
34 1 15.461 17.074 -4.27945
36 1 20.1194 16.8783 -4.08309
38 1 24.1329 17.1023 -3.28829
40 1 28.6171 16.1851 -3.36358
42 1 33.0932 17.0761 -2.18072
113 1 3.95025 19.5309 -2.90161
115 1 8.21243 19.0988 -2.85517
1689 1 20.1699 28.0763 18.2597
117 1 12.8721 19.3474 -1.89782
127 1 3.69418 23.7754 -3.41552
129 1 8.421 23.7896 -2.22253
48 1 15.0836 21.7739 -5.06481
133 1 16.6992 23.6594 -0.890653
50 1 19.7402 21.4346 -3.79228
52 1 24.5525 21.9221 -3.12226
54 1 29.0914 21.0474 -2.68057
56 1 32.9997 21.938 -1.69114
10995 1 0.935475 26.3042 5.69206
344 1 17.4176 25.6146 21.1017
292 1 26.2747 8.06783 22.1201
283 1 5.69959 6.2549 15.8442
62 1 15.1889 26.2523 -4.65339
64 1 19.8666 26.0643 -3.72038
66 1 23.9382 26.3763 -3.26012
68 1 28.7026 25.7968 -2.89816
10878 1 1.12156 7.93935 -0.0301024
72 1 5.81451 8.46217 0.372201
74 1 10.2256 8.04251 1.17835
76 1 14.4512 7.91887 1.81413
342 1 13.5377 25.9614 20.6599
1619 1 20.3844 28.3901 12.1554
10943 1 0.725765 7.88859 5.47146
86 1 5.70284 13.2575 0.373273
88 1 10.0466 12.5949 1.22418
89 1 12.2902 10.0318 -1.59422
90 1 14.5449 11.9929 1.77687
91 1 16.9436 10.2091 -1.21314
93 1 21.5437 9.63584 -0.25282
95 1 26.0791 10.329 0.456565
97 1 30.5119 10.4476 1.38842
100 1 5.64895 17.3262 0.658842
102 1 10.7257 17.1319 0.467618
105 1 16.9771 14.5574 -1.4555
107 1 21.7376 14.3259 -0.51839
109 1 26.0355 14.8162 0.270418
111 1 30.6684 14.9431 0.361417
10904 1 1.11099 17.382 -0.0279625
104 1 14.5334 16.6736 1.62211
119 1 17.1307 19.1909 -1.51169
121 1 21.7726 19.1797 -0.631689
123 1 26.4238 19.5768 0.3769
125 1 30.4401 19.0988 0.786142
10917 1 1.23377 21.3914 -0.362111
114 1 5.19243 22.0142 0.743586
116 1 10.6147 21.8789 0.649349
131 1 12.302 23.6252 -1.88722
118 1 14.4674 21.4557 1.47558
135 1 21.4467 23.7057 -0.112731
137 1 25.9785 23.9709 -0.0413511
139 1 30.6786 23.6474 0.799916
219 1 21.0594 6.14694 11.6594
128 1 5.33869 26.7068 0.0530507
130 1 9.84238 26.4192 0.769276
132 1 14.288 25.9635 1.7023
223 1 29.7448 5.67555 13.3385
10891 1 0.94499 12.7994 0.167209
70 1 33.2582 25.7786 -2.2446
1687 1 15.5624 27.9923 17.6543
1617 1 16.3085 28.4379 11.1386
78 1 18.7287 7.96013 2.52228
80 1 23.5095 7.38731 3.15786
82 1 27.9061 7.91212 4.10246
84 1 32.7388 7.87425 4.09734
155 1 3.4429 10.2446 3.19883
157 1 7.79267 10.2737 3.93978
159 1 12.0266 9.89067 4.43946
92 1 18.9314 12.7076 2.18646
161 1 16.4441 10.9181 5.18532
94 1 23.6693 12.7255 2.68846
96 1 28.4165 12.6515 3.9645
98 1 32.9494 12.6915 3.59926
169 1 3.35432 14.7343 3.16786
171 1 7.90519 14.995 3.97376
173 1 12.0661 14.4181 3.81216
175 1 16.6128 14.7117 5.22441
112 1 32.6222 17.5231 3.87052
183 1 2.70301 19.7216 2.95749
185 1 7.92668 19.4201 3.4413
187 1 11.8578 19.3146 4.33739
189 1 16.3585 19.095 5.13291
106 1 19.1613 16.9294 2.22901
108 1 23.3729 17.4602 2.72351
110 1 27.9358 17.3315 3.49395
197 1 2.79051 24.2307 2.94768
199 1 7.50665 24.1245 3.30652
201 1 11.6715 23.9853 4.53354
203 1 16.5252 23.728 4.72944
120 1 19.251 21.2629 2.20055
122 1 23.4749 21.9751 3.02204
124 1 28.111 22.0187 3.41192
126 1 32.6276 21.5636 4.597
5913 1 32.9043 23.6563 20.3731
134 1 18.9157 25.7396 2.30959
136 1 23.3122 26.2341 2.9652
138 1 27.8127 26.1845 3.65545
140 1 32.1886 26.4961 4.30165
10930 1 1.21322 25.6963 -1.23619
142 1 5.30007 7.79767 6.40626
144 1 9.61863 7.65365 7.36955
146 1 14.1485 8.12673 8.57074
148 1 18.8841 7.96682 8.78971
1685 1 10.8795 28.4124 17.2442
156 1 5.3541 12.5896 6.75276
158 1 9.28475 12.5633 7.10784
160 1 13.9248 12.735 7.55703
162 1 18.9912 12.5932 8.58462
163 1 20.9785 10.3385 5.83479
165 1 25.4005 10.1902 6.23684
167 1 29.8427 10.3843 6.55344
351 1 1.13171 5.77496 21.3422
177 1 21.1652 14.9249 5.97978
179 1 25.8173 15.0477 5.99142
181 1 30.0857 14.9489 6.8669
5861 1 33.4657 5.81439 20.3424
170 1 5.04353 17.4576 6.47078
172 1 9.12309 17.057 7.36962
174 1 13.7574 16.8145 7.84047
191 1 21.108 19.6036 6.26383
193 1 25.1051 19.5947 6.45107
195 1 29.9131 19.6827 7.16957
149 1 20.3821 5.71974 5.17879
184 1 5.10525 21.9954 6.10127
186 1 8.6175 21.782 7.43085
188 1 13.354 22.0851 7.57913
190 1 18.5109 21.6274 8.61259
205 1 20.7396 23.6004 6.09382
207 1 25.3814 24.0428 6.68771
192 1 23.1726 21.7069 9.85452
209 1 30.0134 23.5494 7.28967
409 1 5.99586 24.2578 21.7253
198 1 4.93512 26.3589 6.30398
200 1 9.39369 26.9729 7.54067
202 1 13.7857 26.4782 7.63276
204 1 19.2943 26.1611 8.75868
10982 1 0.545616 21.9196 6.40503
206 1 23.1403 25.8477 9.51235
326 1 8.98846 21.5813 19.4267
407 1 1.33942 23.9961 21.5425
18 1 10.7561 12.4194 -4.97794
215 1 11.5199 6.21639 11.0898
217 1 16.3162 5.80789 11.1583
1551 1 25.7278 28.2301 6.42456
150 1 23.6863 8.43358 9.27548
152 1 27.8608 8.26984 9.72665
154 1 31.9832 8.01725 10.1416
225 1 2.26397 10.1411 9.13544
227 1 7.38905 10.4676 10.4534
229 1 11.4152 10.8412 11.0247
231 1 15.9651 10.5926 11.0787
233 1 20.5136 10.3772 11.9447
164 1 23.5947 12.8519 9.4703
166 1 28.1013 12.969 9.83296
168 1 31.7618 12.8416 10.0551
239 1 2.63739 14.703 9.17697
241 1 7.13474 15.0322 10.0006
243 1 11.5715 14.8149 10.6029
245 1 15.6049 14.9977 11.0696
176 1 18.2998 17.1869 8.81693
247 1 19.9861 15.0419 12.505
180 1 27.7216 16.8909 9.47397
182 1 32.3337 17.5783 10.1861
253 1 2.34502 19.8632 9.31613
255 1 6.62804 19.7473 10.0366
257 1 11.2573 19.2571 10.5412
259 1 15.4387 19.1022 11.2068
178 1 23.0356 16.9556 9.1583
261 1 20.4487 19.7626 11.9944
267 1 2.79046 24.316 9.48356
269 1 6.6462 24.3933 10.3452
271 1 11.2244 23.8998 10.617
273 1 15.6078 23.7746 10.9633
275 1 19.4376 24.3113 12.0139
194 1 27.7474 21.5057 9.95506
196 1 32.2137 21.5399 10.7856
332 1 21.8376 21.04 21.7875
208 1 27.6295 26.1812 10.1396
210 1 32.3785 26.192 10.5254
212 1 3.48099 8.52883 12.4373
214 1 9.00006 8.02418 14.1086
216 1 13.8974 8.63784 14.1542
218 1 18.6283 8.0738 14.2125
395 1 5.84996 19.002 21.9077
340 1 7.92386 27.1516 19.3249
348 1 25.5674 26.0568 22.4073
295 1 1.59959 10.2496 15.7383
226 1 4.14361 12.6421 12.4793
228 1 9.15758 12.7007 13.903
230 1 13.2811 12.7132 14.3999
232 1 17.8631 12.6585 14.6508
234 1 22.3646 12.7434 15.1377
235 1 25.226 10.2361 12.3324
237 1 29.5736 10.3333 13.4765
293 1 29.0031 5.61514 19.2034
309 1 1.76639 14.8148 15.7169
249 1 24.8778 14.8496 12.5653
251 1 29.365 15.1336 12.8167
291 1 24.6961 6.28241 18.976
240 1 4.32158 17.3391 12.7721
242 1 8.85767 17.4577 13.4221
244 1 13.3222 16.9659 14.5596
246 1 17.4046 17.0812 14.971
248 1 22.1322 16.9549 15.2448
263 1 25.0709 19.5363 12.5302
265 1 29.7233 18.8967 13.2063
5835 1 33.6566 18.9986 14.5945
337 1 1.94228 24.2688 15.5406
254 1 3.89018 21.8569 13.1799
256 1 8.50542 22.0708 12.8375
258 1 13.0808 21.5032 14.0933
260 1 17.7856 21.618 14.4254
262 1 22.3033 21.4111 15.8423
277 1 25.1155 23.6218 12.8892
279 1 29.5902 23.9686 13.7572
346 1 21.5651 25.5096 22.2231
268 1 4.39195 26.4825 12.9308
270 1 8.30532 26.2066 13.6053
272 1 13.6415 26.1808 13.9747
274 1 17.8655 26.4889 15.1084
276 1 22.0477 26.0101 15.5693
330 1 17.0165 21.646 21.493
334 1 26.0269 21.4841 22.5494
1691 1 23.9972 28.3031 18.3568
77 1 17.1176 5.83834 -0.39683
289 1 20.0925 6.25498 18.3101
220 1 22.5429 8.40663 15.2381
328 1 13.1017 21.6622 20.3804
222 1 26.8132 8.15409 16.3695
224 1 31.5915 8.12867 16.9804
296 1 3.70384 12.2823 19.1845
297 1 5.73578 10.59 16.1261
299 1 10.8034 10.0144 17.0878
301 1 15.141 10.4781 17.8461
303 1 19.7237 10.9371 18.566
305 1 23.6166 10.542 18.3091
236 1 27.1277 12.6337 15.9865
238 1 31.6457 12.6219 16.9093
311 1 6.17553 15.2294 16.4955
313 1 10.6991 14.7392 17.7531
315 1 15.4512 14.464 17.3186
317 1 19.8453 15.0276 17.9708
319 1 24.2837 14.5566 18.9119
252 1 31.3384 16.5861 16.8712
323 1 1.94242 19.4464 15.5458
325 1 6.94556 19.2267 16.1209
327 1 11.1544 19.4615 17.0478
329 1 15.7468 18.9599 17.8526
331 1 19.7961 19.582 18.1989
333 1 24.4391 19.4915 19.2533
250 1 26.8395 17.1627 16.1185
335 1 29.2321 19.2251 20.0494
324 1 4.00326 21.6379 18.6328
339 1 6.2026 23.7551 16.5654
341 1 10.8577 24.2598 17.2407
343 1 15.1363 23.6166 17.5224
345 1 19.7943 23.2279 18.3508
264 1 26.9822 20.9982 16.3833
347 1 24.2927 24.0669 19.0168
349 1 28.7578 23.9807 19.8075
266 1 31.2667 20.933 16.9442
278 1 26.6444 26.1835 16.2355
280 1 31.297 25.7495 16.6815
81 1 26.1326 5.56155 0.238371
282 1 4.01752 8.50855 19.2112
284 1 8.37739 8.03646 19.3108
286 1 12.2721 7.91444 20.1423
288 1 17.4703 7.76812 20.7731
290 1 21.8819 8.18708 22.0775
213 1 6.68408 6.25644 10.2006
338 1 3.75112 26.9969 19.1199
7161 1 33.5496 27.9709 20.2175
1545 1 11.8335 28.0493 4.03114
367 1 5.79852 10.2823 22.5225
298 1 8.13859 12.8182 19.9336
300 1 12.8457 12.0809 20.8221
302 1 17.3383 12.5679 21.0666
306 1 26.6414 12.8406 22.5861
307 1 29.3358 10.2754 19.5876
5874 1 33.8769 10.4449 20.435
379 1 0.850681 14.662 22.1297
304 1 22.0404 13.1318 21.6355
321 1 28.9266 15.1324 19.4883
5887 1 33.0943 15.1352 20.8226
310 1 3.44749 17.1084 18.7805
393 1 1.04531 19.3704 21.3519
1553 1 29.624 28.1172 6.9286
312 1 7.93758 17.1428 19.2418
314 1 12.8253 16.8849 20.1541
316 1 17.3641 16.8938 21.6359
318 1 22.0589 17.1775 21.6723
1477 1 17.0152 28.3787 -1.1429
5900 1 33.5853 19.4538 20.6529
1693 1 28.725 28.1081 19.9111
381 1 5.4083 14.8704 22.8111
1623 1 29.7098 28.0166 13.8598
1549 1 21.1939 28.0471 5.67974
1475 1 12.5828 28.4614 -2.68238
4 1 10.499 7.67483 -4.81668
10813 1 1.90062 7.71285 -5.17561
352 1 3.06826 7.87505 25.2505
354 1 7.56211 7.30337 25.7545
350 1 31.093 26.3692 23.1368
662 1 5.59619 17.4152 50.6711
1821 1 0.656138 28.1251 27.9647
5926 1 33.0354 6.05964 26.7107
366 1 3.19433 12.0022 25.182
369 1 10.3351 10.2889 22.9536
368 1 7.71636 12.3953 26.4016
371 1 14.9603 10.1213 23.9429
373 1 19.4379 10.1778 23.9911
375 1 24.2721 10.8 25.3123
377 1 29.035 9.6244 25.72
6173 1 33.8898 24.307 41.7042
519 1 0.35206 14.9922 34.1003
383 1 10.2376 14.8903 23.4124
385 1 14.9213 14.4993 23.7392
387 1 19.3057 14.8363 24.8009
389 1 23.7662 15.3295 25.4805
391 1 28.3847 15.0579 26.0809
380 1 3.15105 17.4615 25.1789
382 1 7.66539 17.0406 26.1289
449 1 0.587299 15.0353 28.206
399 1 14.8417 19.2359 23.6906
401 1 19.4039 19.3509 24.5599
403 1 23.8922 19.4078 25.4581
405 1 28.4945 19.5108 26.5901
5965 1 32.5553 19.226 27.1623
308 1 30.5516 12.4966 23.1522
394 1 3.58289 21.967 24.6164
396 1 7.48754 21.6172 25.4274
643 1 29.3454 5.91359 47.3795
660 1 1.03097 16.7278 50.2229
413 1 14.2587 23.4981 23.7072
415 1 19.4154 23.3553 24.987
417 1 23.8716 23.7636 25.1151
419 1 28.0929 24.2445 26.1785
5978 1 32.9578 24.0215 26.9221
322 1 30.8706 16.8371 23.5298
408 1 2.96443 25.8355 24.8134
421 1 0.798 5.89898 27.9667
477 1 0.521293 23.4985 28.0279
676 1 5.13615 21.606 50.9378
356 1 12.011 7.78093 26.7843
358 1 16.7918 7.70329 26.8874
360 1 21.4315 8.47924 27.6039
362 1 25.9621 7.63146 28.5615
364 1 30.0862 7.76125 29.2333
435 1 1.15379 9.64663 28.3817
437 1 5.52898 10.04 28.829
439 1 9.68815 10.0475 29.0864
370 1 12.7094 12.2628 26.3744
441 1 14.2037 10.3693 30.1742
372 1 17.2931 12.1908 27.3774
376 1 25.7256 12.8526 29.0197
5939 1 33.0113 10.1098 26.6005
378 1 30.1939 11.7854 29.8084
1895 1 9.25384 28.1542 35.5656
451 1 4.88247 15.2363 27.9337
453 1 10.2186 14.7582 29.4496
374 1 21.6963 13.03 28.4878
5952 1 32.924 14.7115 26.5995
463 1 1.34013 19.7775 27.7909
465 1 5.48475 19.7604 28.3959
467 1 9.50408 19.5793 29.1531
384 1 12.4116 17.0407 26.7522
386 1 16.5262 16.9163 27.3749
388 1 21.2343 17.3794 28.6065
390 1 25.9244 17.2247 29.2329
392 1 30.1658 17.0271 29.3829
479 1 5.17957 24.273 28.5164
398 1 12.0572 21.8503 26.2615
400 1 16.5954 21.6987 27.3363
402 1 21.2967 21.6696 28.5024
404 1 25.4643 21.9806 29.1839
406 1 29.9122 21.4868 29.4702
361 1 24.0518 6.05407 24.6587
410 1 7.53856 26.3745 25.8798
695 1 16.847 24.0454 49.5834
412 1 12.0299 26.3264 26.8421
414 1 16.3767 26.2984 27.3178
416 1 21.1697 26.2047 27.775
418 1 25.6724 26.0203 28.7183
420 1 29.9798 26.7778 29.5559
422 1 2.73149 8.16642 31.6802
424 1 7.39995 7.99728 32.6298
426 1 11.205 7.75756 32.768
505 1 0.93515 10.419 34.1128
682 1 19.7838 21.6036 50.9363
690 1 4.92647 26.2085 51.284
1893 1 4.48719 28.285 35.1026
698 1 26.9439 26.3194 49.6057
436 1 2.3958 12.8515 31.1646
438 1 7.1549 12.5367 31.039
440 1 11.6022 12.2954 32.6953
443 1 18.698 10.0834 30.5359
445 1 23.1026 9.92902 31.7351
447 1 27.7489 9.86543 32.2176
6004 1 32.5843 9.9748 32.2876
452 1 7.01119 17.0331 32.112
455 1 14.6365 14.3159 29.8055
457 1 19.0136 14.9297 30.6836
459 1 23.252 14.5491 31.6495
461 1 27.7189 14.6041 32.5026
6017 1 32.5226 14.612 32.7825
450 1 2.657 17.6931 30.9489
469 1 14.4253 19.2327 29.4942
454 1 11.7978 17.0513 32.5654
471 1 18.7633 19.7096 30.5277
473 1 23.3658 19.3428 31.9695
475 1 27.9901 19.136 31.9555
6030 1 32.5117 19.3483 32.5597
464 1 2.7732 22.0783 31.7624
466 1 7.55173 21.728 31.8684
481 1 9.58145 24.1711 29.43
468 1 11.2998 21.3017 32.3536
483 1 13.4741 23.4786 30.402
485 1 18.2388 24.2762 30.8369
487 1 22.9592 24.1029 31.5663
489 1 27.4936 24.0056 32.4517
6043 1 32.3304 24.1108 32.7344
478 1 2.26769 26.0506 31.6
480 1 7.00068 26.0613 31.9682
482 1 12.0661 26.4023 32.5769
1761 1 23.6765 28.3932 25.1385
7226 1 32.6001 28.2631 27.1047
336 1 30.615 21.4715 23.7727
7356 1 33.3001 28.0034 37.6454
428 1 15.6728 7.96381 33.8779
430 1 20.3925 8.39873 34.1127
432 1 25.025 8.14408 35.3234
434 1 29.638 8.05355 35.4278
507 1 4.88755 10.4054 34.4335
509 1 8.50256 10.1844 35.7518
511 1 13.6111 10.7244 35.8253
442 1 16.2697 12.4499 33.7121
444 1 20.3209 12.2985 33.8754
446 1 25.1127 12.1806 35.0436
448 1 29.87 11.8958 35.4673
521 1 4.27182 15.1718 34.5034
523 1 8.62438 14.5683 34.5268
525 1 13.2904 14.5539 36.3912
527 1 18.6542 14.8273 36.8504
458 1 19.9571 16.9449 33.8866
535 1 4.59603 19.0327 34.979
537 1 9.27508 18.2402 35.2486
539 1 13.7304 19.1464 36.3734
456 1 16.322 16.7984 33.5684
541 1 17.8751 19.4676 37.2434
460 1 25.7417 17.5298 35.6452
462 1 29.7623 17.7586 35.0991
549 1 5.27368 23.8038 34.6276
551 1 9.48177 24.0521 35.5695
553 1 13.889 23.8646 36.0272
470 1 15.5979 21.413 33.552
472 1 20.4373 22.0575 34.2997
474 1 24.6938 21.7933 35.5363
476 1 29.2279 22.0812 35.3273
693 1 12.3823 23.7354 48.5751
1903 1 26.5729 28.0874 38.3787
484 1 15.8451 25.9225 33.3819
2035 1 7.60776 28.2029 47.8934
486 1 20.2606 26.659 34.4195
488 1 24.7937 26.2338 35.3329
490 1 29.3933 26.1113 35.4544
492 1 2.25184 7.7397 37.8735
494 1 6.13059 8.3566 38.4605
496 1 10.8307 8.08929 38.9939
498 1 15.5223 8.28921 39.3867
2039 1 16.8313 28.3751 50.1838
500 1 20.2682 7.70668 40.4488
411 1 10.2219 23.8671 23.2453
504 1 30.5069 8.05953 40.0159
6056 1 33.5814 5.85716 37.1433
506 1 2.60439 12.1988 37.1217
508 1 6.96366 12.6197 38.4811
510 1 11.3843 12.2957 38.91
512 1 15.8711 12.8683 39.4076
513 1 17.9679 10.2387 37.2256
515 1 22.4617 9.6062 38.1159
514 1 20.5351 12.4385 40.5627
517 1 27.2322 10.2177 38.6142
518 1 31.14 12.4088 40.122
6069 1 33.755 9.88178 36.9713
529 1 23.0967 14.5921 38.4746
528 1 20.0526 17.1598 40.8371
531 1 27.8126 14.6137 38.2568
6082 1 32.7439 14.9518 37.4469
520 1 2.22185 16.4638 37.7948
522 1 6.55793 16.517 38.583
524 1 11.0275 17.0716 39.5365
526 1 15.4848 17.0945 39.7305
543 1 22.5477 19.2087 37.3912
545 1 27.147 19.4831 38.7686
6095 1 32.9184 19.256 37.3572
532 1 30.7431 17.0921 39.805
534 1 2.33282 21.2728 37.4102
536 1 6.13993 22.2513 38.5796
538 1 11.1646 21.1739 38.6919
555 1 18.2164 23.6882 36.8855
540 1 15.4092 21.722 39.8042
557 1 22.1777 23.8399 37.789
559 1 26.8128 24.308 38.6311
546 1 30.4845 21.826 39.9876
6108 1 33.1834 23.7452 37.3124
548 1 2.66434 25.9094 37.8817
550 1 6.88646 26.532 38.4074
552 1 10.9917 26.3433 39.0876
554 1 15.4807 26.0097 39.6846
560 1 30.1062 26.5725 39.9349
688 1 0.411746 26.0664 49.8537
686 1 32.5161 21.8405 49.3335
502 1 24.8936 7.81361 41.7665
577 1 4.20634 10.1393 41.4557
576 1 1.41218 12.8834 44.2823
579 1 8.66516 9.79383 41.9554
581 1 13.0047 10.548 42.1788
583 1 17.4135 10.294 43.2909
585 1 22.101 10.554 44.165
516 1 24.9057 12.4118 41.012
587 1 28.1602 10.3061 43.0768
591 1 4.0632 14.807 41.2669
593 1 8.73738 14.629 41.8999
595 1 12.9201 14.4576 42.6637
597 1 17.5829 14.9342 43.2325
599 1 22.2391 14.8979 44.1153
530 1 24.9881 16.9185 40.8238
601 1 28.4317 14.9805 43.0319
648 1 5.49739 12.7032 50.9304
605 1 4.05137 19.5974 40.8929
607 1 8.63418 19.5177 41.5284
609 1 13.2239 18.9694 42.2094
611 1 17.3863 19.6713 43.435
613 1 22.2795 19.0888 44.0707
615 1 28.2717 19.5934 43.1721
573 1 28.6083 6.27289 42.9237
619 1 4.20453 24.3709 41.7487
621 1 8.82692 24.2493 41.601
623 1 12.745 23.5328 42.4248
625 1 17.1962 23.7713 43.653
542 1 19.6296 21.0097 40.5178
627 1 22.0406 23.8412 43.7846
544 1 24.6486 21.0305 41.3061
629 1 27.8662 24.1026 42.849
691 1 7.76619 24.1409 48.0374
556 1 19.318 25.2761 40.5699
558 1 23.5709 26.4391 41.4003
700 1 32.6225 26.4017 49.7042
562 1 1.2869 8.22513 44.7102
564 1 6.137 7.92438 45.2394
566 1 11.0193 7.71317 45.3826
568 1 15.6854 7.58137 46.4972
570 1 19.656 8.35594 46.484
572 1 25.4241 8.07227 46.2396
574 1 31.8304 7.9047 44.6746
647 1 3.33056 10.2889 47.3763
578 1 5.95552 12.5825 44.8958
580 1 10.4365 12.2562 45.7371
582 1 15.165 12.1563 46.0562
584 1 19.214 12.6764 46.9847
586 1 25.5687 12.6695 46.1139
657 1 29.3494 10.5367 47.7449
588 1 32.0836 12.6052 44.587
592 1 5.98194 17.0719 44.477
600 1 26.0612 17.0802 45.7923
671 1 29.1229 14.5927 47.6594
602 1 31.8538 17.3136 44.4633
590 1 1.31425 17.4726 44.155
594 1 10.6862 16.4796 45.1419
596 1 15.181 16.8508 45.9283
598 1 19.6768 17.0886 46.7071
685 1 29.5273 19.4329 47.353
604 1 1.44534 21.8364 43.8833
606 1 5.95063 21.7054 44.6987
608 1 10.5106 21.1727 44.9085
610 1 15.0218 21.414 45.8865
612 1 19.5909 21.7846 47.0044
614 1 25.2522 21.9411 46.0351
699 1 29.377 23.7989 47.6117
616 1 31.274 21.4219 44.401
618 1 0.784842 26.0954 44.2045
620 1 5.79469 26.7081 44.7394
622 1 10.583 25.9473 44.881
624 1 15.0973 26.1243 46.4331
626 1 19.4601 26.6778 46.5566
628 1 25.8931 26.2151 45.4267
674 1 0.707295 21.85 50.3518
630 1 31.4163 25.9147 44.1926
632 1 1.18756 8.00334 50.5015
697 1 22.9599 24.2068 48.6711
429 1 18.4307 6.09236 30.9574
642 1 27.0624 8.55839 50.7509
644 1 33.0829 8.27607 49.0747
646 1 1.44897 13.0088 50.4289
1763 1 27.8542 28.1864 25.9348
649 1 8.08951 10.1169 48.2611
651 1 12.2062 10.0708 49.1941
653 1 17.2991 9.5568 49.3866
5991 1 32.7794 6.2202 32.846
655 1 22.6824 10.0963 48.6177
656 1 26.9326 12.3839 50.0961
658 1 33.1689 12.7394 48.926
661 1 3.23442 14.9295 47.4493
2033 1 3.38391 28.3258 47.6518
2037 1 12.8875 27.9025 49.1811
689 1 3.13955 24.2408 47.3509
663 1 7.79711 14.8679 48.4471
665 1 12.4942 14.6469 48.4656
667 1 17.2034 14.8474 49.4155
669 1 23.0804 14.7431 48.621
670 1 26.3968 17.2381 50.3107
672 1 32.8042 17.2416 49.7597
675 1 3.26618 19.6576 47.3434
677 1 8.04076 19.5444 47.6268
679 1 12.4591 19.2513 48.5378
681 1 16.951 19.4733 49.4584
684 1 26.8562 21.934 50.0939
683 1 23.262 19.6003 48.5331
1825 1 9.35453 28.1779 28.6072
1823 1 5.05659 28.1872 28.2791
1757 1 14.8295 28.1886 24.0884
1965 1 8.43344 28.4387 41.3877
637 1 12.407 6.13175 49.765
493 1 4.20712 5.96884 35.1528
1833 1 27.2492 28.2958 32.1618
1967 1 12.8335 28.11 43.0003
1897 1 13.9698 28.2815 36.3417
1759 1 19.1076 28.3736 24.4467
497 1 13.3945 6.0067 36.4498
565 1 8.59717 5.88766 41.8889
569 1 16.669 6.10178 42.2338
635 1 7.97735 5.68398 48.3899
294 1 30.8416 7.72284 23.1337
397 1 10.1818 19.3604 23.2651
320 1 26.2497 17.1912 22.9823
636 1 9.78395 7.72829 51.9103
638 1 14.3282 7.68521 52.6863
712 1 27.9235 8.29516 55.1914
1090 1 31.0699 16.7575 79.066
727 1 30.3368 10.6199 52.1246
717 1 3.46953 10.1019 54.4454
650 1 10.101 12.5991 51.7565
652 1 14.4139 12.3125 52.0005
723 1 17.75 10.2833 54.0637
725 1 24.1984 10.0075 53.1305
773 1 2.16455 6.21437 60.1486
726 1 27.5327 12.913 54.2615
1100 1 20.3298 21.3439 79.058
731 1 2.44244 15.4975 53.5562
733 1 6.97055 15.0944 54.5151
737 1 17.6553 14.6137 54.0863
739 1 24.3121 14.6661 52.9648
741 1 30.2423 14.5515 51.572
742 1 33.9773 16.8141 53.5676
745 1 3.03717 19.8965 53.7428
666 1 14.0846 16.9667 52.3089
751 1 18.1145 19.3207 53.8113
753 1 23.738 19.5736 52.6429
755 1 29.924 19.9746 51.8389
759 1 2.9062 23.6846 54.4783
761 1 7.54294 23.9368 54.5744
678 1 9.6399 21.3998 51.6299
680 1 14.3438 21.7257 52.07
765 1 17.7469 24.0038 54.1358
716 1 0.704264 12.3072 56.4879
767 1 23.6298 23.8004 52.4333
769 1 30.0122 24.6914 52.2295
756 1 33.9018 21.6336 53.2635
654 1 20.9889 12.6807 51.344
692 1 9.6932 26.2137 51.5537
694 1 14.0613 26.2196 52.3931
775 1 6.72015 6.25922 61.2903
634 1 5.15684 8.17855 51.287
768 1 26.85 25.9766 54.363
714 1 33.5227 7.14844 53.5413
968 1 0.876969 26.011 73.9107
704 1 5.33992 8.62363 57.7553
706 1 9.16757 7.98107 58.1038
1069 1 11.1823 10.332 78.2469
708 1 15.4995 8.52998 56.8461
710 1 21.2617 7.49931 55.7305
1102 1 26.7944 21.2346 78.1643
840 1 33.896 26.4005 57.7431
719 1 7.40112 10.4828 54.5628
718 1 4.84867 13.0389 57.4533
720 1 9.17779 12.8659 58.3067
721 1 11.4137 10.2497 55.3397
722 1 15.1123 12.3593 56.6666
724 1 21.5851 12.2111 55.794
795 1 24.8363 10.2915 57.1255
797 1 31.597 9.98376 55.9153
735 1 11.7184 15.1341 54.974
736 1 15.3549 17.154 56.5883
738 1 21.2099 16.9491 55.6073
809 1 25.0729 15.1368 57.4284
740 1 27.7145 17.5027 54.3806
811 1 31.0577 14.5824 56.2146
696 1 20.8158 26.2249 51.0937
732 1 4.64868 18.1561 57.3868
747 1 7.41626 19.8835 54.2687
734 1 8.87822 17.2003 58.0041
749 1 11.4543 19.2843 55.0859
823 1 24.9212 19.8786 57.2077
825 1 31.0135 19.1446 56.3218
1118 1 31.715 25.9451 78.7281
746 1 4.8404 22.0775 58.0402
763 1 11.8482 23.9825 55.1249
750 1 15.203 21.8431 56.6066
752 1 20.8988 21.8049 55.6154
835 1 19.0726 23.655 58.554
837 1 25.3195 24.2769 57.6448
754 1 27.363 21.6392 54.6939
839 1 31.3547 23.5117 56.0937
2105 1 7.46698 28.0008 54.6936
760 1 4.25526 26.62 57.292
762 1 9.00123 25.914 58.6009
764 1 15.0535 26.7494 56.8052
766 1 21.5812 26.376 55.5492
1114 1 20.4883 26.0767 79.1312
640 1 20.6383 7.97251 50.9345
705 1 7.4072 5.81539 54.696
702 1 0.699786 8.34685 56.4983
709 1 17.9463 5.81137 54.2616
778 1 16.1733 7.75821 61.0912
780 1 22.6573 8.5079 60.2086
782 1 28.0624 8.4292 59.0555
865 1 26.3273 10.1139 62.2348
2179 1 18.6294 28.3328 58.6104
787 1 2.40599 10.1463 60.2769
789 1 7.02028 10.9773 61.1046
791 1 12.4973 10.5876 59.9375
793 1 19.3374 10.7159 58.62
792 1 16.6798 12.4208 61.2051
794 1 22.6963 12.6356 60.42
796 1 28.6592 12.3891 58.774
867 1 32.1397 10.0219 60.4773
801 1 2.24282 14.5051 60.0736
803 1 6.51735 15.8098 60.8391
805 1 12.5613 15.0438 59.6738
807 1 18.8504 14.9149 58.9234
810 1 27.9293 16.8586 59.0649
879 1 26.0618 14.6344 61.8109
881 1 32.1248 15.0011 60.7691
815 1 2.00059 19.2826 60.6522
817 1 6.7674 19.5808 61.3594
819 1 12.6493 19.5659 58.9397
806 1 16.4879 17.442 60.8436
808 1 22.6629 17.2451 60.066
821 1 19.2103 19.5503 58.4613
895 1 31.7224 19.1756 61.0201
831 1 6.23068 25.1041 61.1555
748 1 9.57219 21.2948 58.0187
833 1 12.5544 24.1438 59.7209
820 1 16.1377 21.5602 61.0784
822 1 22.5136 21.3815 60.0034
824 1 28.5674 21.9115 59.2194
909 1 32.0837 24.048 60.5147
829 1 1.71569 24.4967 60.6446
664 1 9.44271 17.2312 51.305
1010 1 1.33246 17.5582 78.7411
834 1 16.6582 25.5817 61.472
836 1 22.2444 26.4049 60.148
838 1 28.3037 26.406 58.5642
774 1 4.74072 8.36252 63.576
776 1 10.7331 8.23608 62.5837
1101 1 22.9712 19.2494 77.2237
850 1 23.7161 7.70029 64.5768
852 1 29.3805 7.984 63.0183
1057 1 17.1071 5.95868 77.5525
788 1 4.64018 12.7224 63.7218
861 1 14.2369 10.3971 64.4018
863 1 20.5942 10.0983 62.8087
864 1 23.6931 12.2606 64.891
866 1 29.7899 12.3787 63.7493
873 1 7.72549 14.6082 65.3025
790 1 10.6246 12.9055 62.4793
875 1 14.156 15.1567 63.9806
877 1 19.4696 14.8095 62.9463
878 1 22.8782 16.2705 64.4453
802 1 4.21046 17.1736 63.9776
804 1 10.307 17.4253 63.0073
889 1 13.735 19.7882 63.7125
891 1 20.0161 19.5554 62.8424
893 1 26.1941 19.4785 62.3919
880 1 29.5749 17.1361 63.6911
1033 1 32.2607 19.5189 65.5708
668 1 20.6588 17.2121 51.6193
816 1 3.81946 22.0119 63.9541
818 1 10.2818 21.1466 62.6594
903 1 13.9982 23.9307 64.124
905 1 20.5475 24.5268 62.8399
907 1 25.9581 24.1423 61.6721
892 1 23.2123 20.5121 64.8921
894 1 29.2544 21.8185 63.8507
964 1 32.7838 23.7611 65.2552
830 1 3.87819 25.6462 64.0833
832 1 10.3435 26.5942 62.7216
1119 1 33.6327 24.1082 75.8183
904 1 17.751 26.2689 65.6711
906 1 23.67 26.6252 64.5492
908 1 29.0251 26.2353 63.636
728 1 34.1589 12.855 53.6399
843 1 1.86995 5.75481 66.4771
844 1 5.8154 8.08664 67.9148
847 1 14.3489 5.79547 64.0376
846 1 11.7161 7.77735 67.2834
848 1 17.7317 8.34092 65.6383
1099 1 17.4202 18.7753 77.5982
920 1 24.4977 7.47707 69.3998
922 1 30.9464 8.22645 68.4964
1105 1 33.6122 19.3244 76.039
857 1 1.76356 9.69775 66.2005
858 1 4.89754 12.2453 68.1902
859 1 8.21494 10.6027 65.7211
860 1 11.7722 12.564 66.9266
931 1 14.9013 10.0723 69.0535
862 1 17.651 12.3516 65.9245
933 1 21.688 10.3761 67.4609
935 1 27.3471 9.87308 66.8636
937 1 33.076 10.1498 65.945
936 1 30.918 12.3019 68.1441
871 1 1.97759 14.4403 66.5069
874 1 11.6106 16.7624 66.7133
947 1 19.8957 15.0263 67.6131
949 1 27.4725 14.471 66.4558
951 1 33.0511 15.0257 65.3117
950 1 30.5252 17.197 68.2567
885 1 1.67504 18.991 66.6598
872 1 5.30271 16.8179 68.5444
887 1 7.82575 19.0977 65.2552
876 1 17.6312 17.4146 65.1158
961 1 20.7861 19.1861 67.5512
963 1 27.2662 19.1317 66.5342
899 1 1.56452 24.3675 67.1844
886 1 5.34264 21.4108 68.1169
901 1 8.00019 23.8462 65.3416
888 1 10.8397 21.8386 67.0748
890 1 17.7612 21.8129 65.5266
975 1 21.3037 23.8708 67.4909
1035 1 29.4831 21.9489 67.9643
923 1 33.1142 6.27046 65.3342
900 1 5.23466 25.8904 67.7647
902 1 11.1479 26.3865 67.1683
977 1 25.9804 24.1442 66.4336
978 1 30.5276 26.3813 68.2784
2177 1 12.894 28.2034 60.0367
916 1 12.5884 7.58561 71.3836
918 1 18.4915 7.64589 70.2475
2253 1 32.0767 28.5446 60.6833
1040 1 7.41747 25.6254 76.9097
1049 1 34.1082 24.0772 69.3129
927 1 2.73912 10.3542 70.7828
929 1 9.01557 9.98467 69.5425
930 1 12.3499 12.312 71.3676
932 1 19.1566 11.5975 70.0242
1003 1 21.9029 9.83635 72.2356
934 1 24.6879 12.7863 68.5877
1005 1 27.9166 9.61773 70.8807
1116 1 26.6455 26.3412 78.1379
941 1 2.87545 14.5491 70.8301
943 1 8.63455 14.6489 69.7687
945 1 15.0461 14.6448 68.4279
946 1 18.3275 17.7759 69.9303
1017 1 21.8774 14.6867 71.7967
948 1 24.6076 16.5254 69.4578
1019 1 27.6645 14.4851 71.0358
955 1 3.28338 19.2771 70.6646
942 1 6.33607 16.6822 73.1668
957 1 9.0834 19.2463 70.2093
959 1 14.976 19.3256 68.2207
944 1 12.2783 17.1323 71.4689
1031 1 22.0192 19.3632 72.1279
1020 1 28.5334 18.9197 70.8763
6537 1 33.0916 19.5188 69.9472
969 1 2.57537 24.0094 70.7764
971 1 9.05761 23.8743 69.7724
958 1 12.8574 21.6056 71.2772
973 1 14.9633 24.165 67.837
960 1 18.6107 22.1612 70.1167
1045 1 22.0679 24.3342 71.9514
962 1 24.6357 21.1539 69.2233
1047 1 28.0105 24.1111 70.8124
2457 1 16.9703 28.2818 77.4564
970 1 6.43193 25.9502 72.3299
972 1 12.5781 25.8534 71.5598
1113 1 17.0033 23.5855 77.5665
1111 1 11.2967 24.3611 79.1976
974 1 18.6277 26.3904 70.0961
976 1 24.7917 25.9343 69.5886
2183 1 30.7111 28.2007 56.3069
1048 1 31.462 26.3082 72.2119
2247 1 13.8465 28.5254 63.9767
914 1 6.63431 7.74433 72.3088
1026 1 7.68783 21.0091 76.8916
1115 1 23.2889 23.5088 76.3287
988 1 19.8172 8.21179 74.5961
990 1 25.9791 7.94181 73.62
992 1 31.3011 7.47124 72.4728
997 1 3.95128 10.5639 75.7452
928 1 6.2688 11.956 72.8111
999 1 9.92905 10.4291 73.9963
1001 1 16.2526 9.97963 73.1742
1002 1 19.2432 12.9204 74.5793
1004 1 25.7836 12.2082 73.5013
1075 1 29.5808 10.1556 75.2039
1006 1 31.5894 12.2708 72.2818
1013 1 9.72271 14.4427 74.1217
1015 1 16.2456 14.7516 72.3954
1016 1 19.6245 17.1951 74.5362
1018 1 25.7461 16.8529 73.5857
1089 1 29.7568 14.9127 75.0611
1022 1 31.5161 16.3912 72.3571
2109 1 17.5206 28.3106 54.0295
1027 1 9.76822 19.1869 73.9847
1029 1 15.9685 19.5505 72.939
1103 1 29.0265 19.1335 75.5661
1039 1 3.94404 23.8101 75.2902
956 1 6.19185 21.4042 72.4604
1041 1 9.99852 23.9745 74.218
1028 1 13.0191 21.77 75.9352
1043 1 16.1765 23.9648 73.5876
1030 1 20.0699 21.7062 74.3345
1032 1 25.5152 21.3997 73.5904
1117 1 29.1382 23.823 75.263
1034 1 31.3944 21.9818 72.8257
1038 1 1.87683 26.158 78.4264
1024 1 1.56345 21.4545 78.2042
1042 1 13.1466 26.4779 75.2717
1083 1 11.2834 15.0796 78.7212
1044 1 19.6187 25.9174 74.6371
1046 1 25.5267 26.0809 74.3841
2461 1 29.3501 28.3125 75.6054
982 1 0.897423 8.05721 78.1833
984 1 7.55198 7.88587 77.0197
1091 1 33.5355 14.5826 75.8191
986 1 13.5385 7.96488 75.7245
1097 1 11.0854 19.0634 78.2768
1060 1 26.7379 7.99713 78.1982
1025 1 4.24642 18.9601 75.383
1062 1 31.489 8.12329 78.8587
996 1 0.917 12.5772 78.6132
998 1 7.19744 12.4438 77.4619
1104 1 31.1315 21.412 78.6721
1000 1 13.4811 12.5489 76.0785
1071 1 17.5057 10.2885 77.0909
2455 1 10.834 28.4034 78.8978
1073 1 23.149 10.7738 76.6774
1074 1 26.814 12.561 77.9711
1077 1 33.9317 10.4396 75.8857
1076 1 31.38 12.6648 78.761
1011 1 3.63815 14.4491 75.3367
1012 1 7.59343 16.3568 77.0848
1088 1 26.5246 16.6821 78.3786
1014 1 14.4714 17.0017 75.7052
1085 1 17.1464 14.7742 77.6977
1087 1 22.8324 14.6198 76.3889
983 1 4.08945 6.12499 75.6347
779 1 18.8246 6.0417 58.6912
985 1 10.027 5.89098 74.7249
707 1 12.2074 5.82301 55.4522
713 1 30.282 5.8884 51.9116
781 1 24.7457 5.63958 57.4839
913 1 2.45675 5.9226 71.1023
12061 1 0.73068 12.4795 101.843
1054 1 8.86196 8.00485 81.3004
1056 1 14.7781 8.02852 80.3737
1193 1 6.61609 5.75553 88.8119
1066 1 2.16715 12.5036 82.9353