ITEM: TIMESTEP
314000
ITEM: NUMBER OF ATOMS
16000
ITEM: BOX BOUNDS pp pp pp
3.7387679731102708e-01 1.0182612320269115e+02
5.7227666374169246e+00 9.6477233362578687e+01
-5.2003406868279001e+00 1.0740034068682587e+02
ITEM: ATOMS id type x y z
1413 1 31.3258 28.0537 -5.18764
10917 1 0.713229 21.0106 -0.52561
8 1 19.8904 7.70107 -3.84029
10 1 24.4542 7.91385 -3.57967
12 1 28.5978 7.78746 -3.12424
14 1 32.9578 7.97201 -2.42368
85 1 3.23249 10.6395 -3.01416
87 1 7.7413 10.1854 -1.87882
215 1 11.8041 6.20389 11.0452
89 1 12.2724 10.3716 -1.57145
22 1 19.7461 12.3319 -4.1485
24 1 24.017 12.6835 -3.48817
26 1 28.6199 11.5902 -3.136
28 1 32.9561 12.6178 -1.68866
99 1 3.32444 14.4033 -2.94372
101 1 7.88983 15.3919 -2.58399
103 1 12.4419 14.8919 -1.81318
34 1 15.2033 16.9058 -4.81094
36 1 19.6339 16.9887 -3.5348
38 1 24.2475 16.9299 -3.25463
40 1 28.9939 18.0039 -2.22792
285 1 10.454 5.88508 17.2952
113 1 3.73407 18.907 -3.09248
115 1 7.45342 19.3858 -2.3261
117 1 12.1783 19.466 -2.02205
42 1 33.5767 17.7093 -1.50548
127 1 3.26368 23.4645 -2.979
129 1 7.83162 23.8711 -3.13063
10943 1 0.440027 8.1051 6.30108
48 1 15.0278 21.7831 -4.63652
131 1 12.2415 23.5777 -1.41803
50 1 18.834 21.679 -3.49355
52 1 23.6859 21.8042 -3.15373
54 1 28.4852 21.9455 -2.41752
56 1 33.1171 21.6762 -1.81299
10969 1 0.615265 17.2078 6.27809
75 1 11.9806 5.76 -1.43897
62 1 15.2153 26.4362 -4.85449
64 1 19.4696 26.2055 -4.07546
66 1 23.7345 26.3853 -3.48003
68 1 28.2101 26.2538 -3.30825
70 1 33.8047 25.9429 -1.60794
10878 1 1.19807 7.85821 0.329451
72 1 5.32376 8.22297 0.643695
74 1 9.92227 8.53989 0.87391
320 1 25.971 17.1522 22.1071
340 1 8.08894 26.2581 20.2502
1613 1 7.02367 28.1085 10.4244
10891 1 0.816719 12.3993 -0.471543
86 1 5.06981 12.8445 0.464858
88 1 9.76217 12.6012 0.842742
90 1 14.2718 12.283 2.22247
91 1 16.9025 10.3393 -1.14991
93 1 21.5837 10.9891 -0.92787
95 1 26.1615 10.0593 -0.049216
97 1 31.1248 9.94673 0.892332
100 1 5.74677 16.6763 0.39795
104 1 13.8813 16.8835 1.56233
105 1 16.7266 15.1842 -1.64385
107 1 21.2663 14.7439 -0.430029
109 1 26.6691 14.8901 -0.350651
111 1 31.1103 15.3023 0.763869
10904 1 1.01104 16.2179 -0.437555
102 1 9.66258 17.6106 1.43371
119 1 16.9422 19.3092 -0.899603
121 1 21.3752 19.6995 -0.423977
123 1 25.7132 19.3346 0.296351
125 1 30.2426 19.827 1.24426
221 1 25.0493 5.83809 12.715
114 1 5.11218 21.3187 0.511013
116 1 9.42812 21.9338 0.624321
118 1 14.1703 21.4772 1.64695
133 1 16.5094 23.9978 -1.2935
135 1 21.3861 24.1543 -0.136555
137 1 25.9244 23.8472 -0.0360783
139 1 30.542 23.9047 1.3163
10930 1 0.829586 25.7244 0.0806897
128 1 5.19461 25.8921 0.285902
130 1 9.8347 26.368 0.302156
132 1 13.9323 25.7179 2.07268
393 1 0.980337 19.0501 22.2667
291 1 24.2719 5.81264 19.2297
5822 1 33.311 14.2848 13.9919
1483 1 30.6575 28.3631 0.539816
153 1 29.8275 5.83818 6.57584
76 1 14.2488 8.30095 1.23844
78 1 18.8945 8.16367 1.94086
287 1 15.1583 6.16469 18.1478
80 1 23.0297 7.9526 2.34442
82 1 27.549 7.91886 2.88211
84 1 32.1472 7.97818 4.32565
155 1 3.17539 10.2886 3.15358
157 1 7.35221 10.1132 3.35328
159 1 11.758 10.1374 4.40286
161 1 16.9067 9.69149 5.61191
92 1 18.8612 12.7736 2.42067
94 1 23.6754 12.3835 2.51544
96 1 28.677 11.8774 3.05394
98 1 32.3472 12.8429 4.59407
169 1 2.6917 14.4264 3.19061
171 1 7.40305 14.6745 3.78817
173 1 12.0045 14.9255 4.52802
106 1 19.3089 17.3767 2.60914
110 1 28.3678 16.7746 3.26689
183 1 2.78523 19.1723 3.07169
185 1 6.90767 19.1949 3.52859
187 1 11.3826 19.4549 4.30362
189 1 16.5029 18.3873 4.93912
108 1 23.8148 16.832 2.90462
112 1 32.3052 17.331 4.25128
197 1 2.39796 23.8056 2.93704
199 1 7.21445 23.9456 3.37657
201 1 11.2561 23.7637 4.36918
203 1 15.9147 23.1474 4.55751
120 1 18.9767 22.0485 2.35861
122 1 23.4004 22.2825 3.02068
124 1 27.3115 21.6753 3.61149
126 1 32.168 21.9406 4.94463
1471 1 3.78945 28.0046 -2.80372
134 1 18.817 25.9798 2.2291
136 1 23.4006 26.8834 2.14662
138 1 27.6028 26.4145 3.79031
140 1 31.838 26.4748 4.28765
142 1 4.16472 8.17799 7.2564
144 1 9.42302 8.20901 7.7585
146 1 14.1713 7.93039 7.81245
381 1 5.44903 15.0808 22.6874
350 1 30.6968 26.1746 22.1556
156 1 5.57078 12.5006 6.8929
158 1 9.67057 12.8485 7.56933
160 1 14.1039 12.6182 7.69316
163 1 20.8245 10.3474 5.55688
165 1 25.1676 9.8167 5.78445
164 1 22.9519 12.5066 8.87059
167 1 29.9652 10.5289 7.22429
174 1 13.7835 16.8377 7.50774
175 1 16.6615 14.3855 5.03521
177 1 21.3041 14.6372 5.97311
179 1 26.1321 14.3342 5.95495
181 1 30.3021 15.3902 7.26172
69 1 31.217 24.1145 -5.12411
6 1 15.2249 7.95685 -4.14775
170 1 4.80121 16.7274 6.87927
172 1 9.46125 17.0284 7.61568
191 1 21.1099 19.2204 5.45567
193 1 25.6074 19.0917 5.80314
195 1 30.0754 19.452 6.89166
184 1 4.64302 21.5106 6.60693
186 1 9.39148 21.5267 6.71231
188 1 14.0154 21.5859 7.64725
190 1 18.0208 21.5639 8.06675
205 1 20.5769 23.7771 6.01938
207 1 25.1132 24.6234 6.57559
209 1 29.6584 24.1501 6.85645
143 1 7.4462 6.49895 4.21177
198 1 4.93281 26.1348 6.84942
200 1 9.42021 25.9137 7.22927
202 1 13.9064 26.2226 7.88803
204 1 17.8437 25.6531 7.96382
1753 1 5.82075 28.2506 22.9212
5809 1 33.5433 10.2501 13.8283
306 1 25.9524 12.6788 22.5626
367 1 6.05863 10.008 22.6617
148 1 18.5141 7.72221 8.98043
150 1 22.4384 7.8488 9.36958
152 1 27.0822 7.90954 9.9989
154 1 31.6494 7.83562 10.3545
225 1 2.2703 10.7188 9.82873
227 1 6.92682 10.1126 9.84389
229 1 11.3982 10.187 10.7631
162 1 18.2842 12.9103 8.40546
231 1 16.0098 10.204 11.281
233 1 20.6988 10.6964 11.8194
235 1 24.5514 10.3617 12.8471
166 1 27.6326 12.4488 9.87985
168 1 31.7199 12.5027 10.8609
239 1 2.33542 14.5786 10.2313
241 1 6.85016 15.2881 10.2201
243 1 11.3065 14.722 10.8927
245 1 15.9729 14.8945 11.2406
247 1 20.5879 14.9961 12.1298
249 1 25.2295 14.4101 12.4195
180 1 27.7854 17.0413 9.63493
253 1 2.43893 19.057 9.19491
255 1 6.46626 19.8839 9.62915
257 1 11.0371 19.4389 10.3313
176 1 18.757 17.7153 8.63493
259 1 16.6953 19.2232 11.9028
261 1 20.756 19.5291 11.7233
178 1 23.1252 16.6252 8.86028
182 1 31.7853 17.7269 10.2976
267 1 2.79484 23.3559 9.9578
269 1 7.47314 24.0407 10.1066
271 1 11.7391 24.0082 10.5814
273 1 15.4636 23.7233 11.527
192 1 23.0234 22.1251 9.12331
275 1 20.4309 24.0549 11.4848
194 1 27.0096 21.8112 9.23004
196 1 31.5632 21.7658 10.4076
348 1 26.3397 25.8621 22.0472
20 1 15.4828 13.0331 -4.71259
206 1 22.8239 26.7888 9.07624
151 1 25.1851 5.95728 6.33088
208 1 27.4617 26.4625 9.61035
210 1 31.882 26.3566 10.503
212 1 4.32094 7.99783 12.8865
1475 1 12.861 28.3299 -1.89005
214 1 8.41357 8.24612 13.644
216 1 12.8508 7.97935 14.6044
218 1 17.641 8.36597 14.5954
220 1 22.1669 7.70902 15.7506
5757 1 34.0873 14.3689 8.0737
342 1 12.8012 26.5435 20.901
295 1 1.73746 10.039 15.2584
226 1 4.6098 12.6657 13.3471
228 1 9.17251 12.7605 13.6521
230 1 13.3735 12.5672 14.38
232 1 18.0449 12.4224 14.8171
234 1 22.0929 12.2902 15.2896
237 1 28.9411 10.0085 13.4333
236 1 26.7827 12.6867 16.2915
4 1 10.4869 8.3084 -4.96223
309 1 1.8617 14.5424 15.6732
240 1 4.43669 16.9582 12.716
242 1 8.57503 17.5494 12.9957
244 1 13.2814 17.1378 14.3501
246 1 17.9893 17.1368 14.7271
248 1 22.642 16.8918 15.3379
251 1 28.8334 15.4959 13.175
351 1 1.34326 6.0547 22.2185
323 1 1.56486 19.5374 15.5846
263 1 25.2076 19.3755 12.1451
250 1 27.3269 17.9321 15.9629
265 1 29.1878 19.7993 12.5867
60 1 10.5517 25.6948 -5.1565
337 1 1.15243 23.7998 15.4965
254 1 4.42072 21.8092 12.9707
256 1 9.02323 21.9667 13.8397
258 1 13.5489 21.2586 14.5056
260 1 18.2083 21.9294 14.8336
262 1 22.1052 21.0838 14.8124
277 1 24.9916 24.1524 12.3033
279 1 29.1751 23.668 13.08
71 1 3.00642 6.09959 -2.86445
346 1 21.6122 25.9902 21.5306
268 1 4.4501 26.1932 12.4371
270 1 9.16002 26.4268 13.7517
272 1 13.5875 25.9943 13.9015
274 1 17.7175 26.3564 14.4099
5913 1 33.1465 23.84 19.9407
83 1 30.3115 5.89145 0.686296
282 1 3.36656 7.96367 19.3983
293 1 28.9144 5.78658 20.0155
222 1 26.7238 8.0174 16.2609
224 1 31.2845 7.45786 16.9515
297 1 5.95473 10.713 16.3644
296 1 3.0192 12.3237 18.8964
299 1 10.4752 10.1354 17.2803
301 1 15.2685 10.3129 17.9407
303 1 20.0304 10.227 18.2368
305 1 24.6312 10.3524 18.7047
307 1 29.1386 10.6844 19.6132
238 1 31.1162 12.5945 17.0792
310 1 3.74206 17.1106 18.8698
311 1 6.60412 15.4069 16.6144
313 1 11.4396 14.3469 17.0671
315 1 15.496 14.8535 17.9196
317 1 19.8493 14.9234 18.4461
319 1 24.8329 14.8973 18.549
252 1 31.8964 17.27 17.3167
325 1 6.23406 19.2339 16.4803
327 1 10.9118 19.9888 17.2347
329 1 15.3068 19.4481 17.4827
331 1 20.0136 19.0577 17.9866
333 1 24.678 19.5847 18.5286
5900 1 33.4702 19.2053 20.4765
324 1 3.58592 21.7119 19.0723
339 1 6.49359 24.1177 16.3061
341 1 10.8666 24.0301 16.9311
343 1 15.409 24.0818 17.7623
345 1 19.8235 23.6091 18.0936
347 1 24.0537 24.0275 18.9521
264 1 26.7907 21.9405 15.8536
349 1 28.7825 23.4602 19.0403
266 1 31.1391 21.514 16.3581
338 1 3.73865 26.3955 19.3612
1477 1 17.1801 28.4114 -1.30298
344 1 17.1594 26.2015 21.1014
276 1 22.1239 25.7275 15.3427
278 1 26.8639 26.3575 16.1526
280 1 30.9203 25.8607 16.0942
284 1 7.90096 8.33495 19.696
286 1 13.1094 8.25246 20.6682
288 1 17.3205 8.05104 21.2495
290 1 22.5785 8.3229 21.8453
292 1 26.6581 8.10819 22.5702
365 1 1.34991 10.1488 21.8929
298 1 8.51695 12.5123 20.0581
300 1 13.1461 12.8694 20.3728
302 1 17.7221 13.2152 21.5526
304 1 21.8261 12.3876 21.9012
7161 1 33.5483 28.409 19.9876
5874 1 33.1383 10.3757 20.6314
379 1 0.974117 14.5011 21.5514
312 1 8.47105 17.2871 19.6356
314 1 12.6537 17.7025 20.1475
318 1 22.0007 17.3772 21.8174
321 1 28.503 14.7352 19.1801
5887 1 33.33 14.9176 20.3007
395 1 4.84232 19.0071 22.0507
316 1 17.4884 17.7639 20.8703
147 1 16.6267 5.82726 5.32936
1693 1 28.8075 27.9572 19.2828
335 1 28.9073 18.5979 19.6058
407 1 1.3467 23.7306 21.8047
1611 1 2.46502 28.081 9.08564
326 1 7.98786 21.2891 19.9226
328 1 12.5951 22.2643 20.4861
330 1 17.7413 21.9024 20.748
332 1 21.6567 21.1443 21.7045
334 1 26.379 21.8479 21.9643
1545 1 12.0058 28.3518 4.17475
1681 1 1.84223 28.3692 15.5361
1543 1 6.90654 28.1968 3.80178
1689 1 19.6386 28.0511 17.6424
1617 1 16.1177 28.2218 11.1894
1553 1 29.5146 28.2616 6.65851
1687 1 15.4377 28.0676 17.6689
352 1 3.10614 8.4137 25.8722
354 1 7.77042 8.02333 26.3816
353 1 5.96015 5.92723 23.0113
497 1 13.6265 5.7647 36.1131
477 1 0.556544 23.5097 28.0225
366 1 2.92934 12.7688 25.3327
640 1 19.8731 7.81608 50.9885
369 1 10.3744 10.3007 23.1953
371 1 14.8576 10.6522 24.15
370 1 12.1173 12.6585 26.3626
373 1 19.5609 10.0832 24.7512
375 1 23.6288 10.1847 25.4102
377 1 28.2305 10.253 25.5164
308 1 30.7108 12.7854 23.6545
5939 1 32.9702 10.4441 26.6404
380 1 2.86274 16.9397 25.2764
6147 1 33.9071 14.6404 41.6437
409 1 5.8504 23.4366 23.0936
382 1 7.55899 17.0271 26.171
385 1 14.8736 15.112 23.5353
387 1 19.405 14.8272 24.4509
389 1 23.2707 14.8302 25.1341
391 1 28.0131 15.7525 25.2261
5952 1 32.5425 15.0815 26.8278
397 1 10.2869 19.5858 23.7508
399 1 14.492 19.6148 23.6034
401 1 19.0779 19.398 24.3397
403 1 23.6297 19.689 25.4055
405 1 27.735 19.7526 25.6722
394 1 2.59486 21.008 25.49
396 1 7.95782 21.8093 26.1252
336 1 31.1622 22.0885 22.9663
413 1 15.0067 23.3606 24.3436
415 1 18.8942 23.8694 24.6112
417 1 23.5302 23.5284 25.1913
419 1 28.218 24.3179 25.7836
5978 1 32.9335 24.5284 26.6333
408 1 3.21022 26.1612 25.3109
410 1 7.76243 26.4341 26.201
412 1 12.399 26.4458 26.7204
421 1 0.724313 5.88683 28.3448
322 1 31.2116 17.3939 23.5505
6056 1 33.2198 5.7414 37.3113
635 1 7.93119 6.1126 48.4638
411 1 9.7235 23.9095 23.0877
356 1 12.3397 8.29495 27.0342
358 1 16.821 8.1642 27.333
360 1 22.0763 8.23582 28.2117
362 1 25.9795 7.92815 28.5188
364 1 30.4806 8.29871 29.2694
571 1 22.0984 6.13871 43.9963
437 1 5.24787 9.7643 28.9426
368 1 7.62158 12.3779 26.291
439 1 9.88309 10.2666 29.7177
372 1 17.0268 13.1543 27.2281
374 1 21.2133 12.6188 28.7996
376 1 25.9844 12.7705 28.1816
378 1 30.2619 12.8024 29.5413
700 1 32.6161 26.1593 49.2216
451 1 4.62346 14.5711 29.2453
453 1 9.84209 14.9676 29.5076
384 1 12.0844 17.3656 26.6447
386 1 16.1295 17.4465 27.29
388 1 20.7262 17.1411 27.7216
392 1 30.4123 17.5311 29.2068
465 1 5.30344 19.1242 28.8632
467 1 9.84988 19.4312 29.5536
390 1 26.3887 17.63 28.5166
5965 1 32.786 20.109 26.1772
479 1 5.03026 23.7688 28.8143
481 1 9.73578 24.0005 29.7139
398 1 12.515 22.0029 27.0037
483 1 14.4119 24.4827 30.4349
400 1 16.4523 21.4916 27.6168
402 1 21.1515 21.7929 27.7697
404 1 25.6321 21.9782 29.1548
406 1 30.2805 21.6086 29.1377
359 1 19.9675 5.93118 24.8971
357 1 14.2996 6.31711 23.9472
414 1 16.5762 26.0463 27.5748
416 1 21.1943 26.3622 27.9544
418 1 25.9179 26.5501 28.6015
420 1 30.5908 26.4243 29.2584
422 1 2.77899 7.68067 32.0318
424 1 7.33713 7.78401 31.9377
426 1 11.9585 8.02066 33.0769
1821 1 0.702865 27.8092 28.2993
436 1 2.59415 12.3069 31.9108
438 1 7.21903 12.2738 32.2196
441 1 13.8252 10.3175 30.0544
440 1 11.765 13.2339 33.0895
443 1 18.486 10.3498 30.6081
445 1 23.9764 9.98051 31.2607
447 1 27.4926 10.5838 32.1968
6004 1 32.1051 10.4452 32.615
454 1 10.8705 17.4135 33.2493
455 1 14.6868 14.9509 29.7169
457 1 18.571 15.1029 30.4983
459 1 23.2156 15.2095 31.2352
461 1 27.7819 14.8499 31.9624
6017 1 31.9086 15.0261 33.0049
450 1 2.52626 16.6864 31.8071
452 1 7.00707 16.9979 32.7038
469 1 14.0543 19.3942 29.8132
471 1 18.5619 19.7094 30.7103
473 1 23.1228 19.5684 31.4177
475 1 27.7219 19.5169 32.6455
6030 1 31.6935 19.2008 32.6651
464 1 3.20577 20.7972 31.8797
466 1 7.14841 21.2437 32.266
468 1 11.894 21.8827 33.0523
485 1 18.3882 23.9034 31.0986
487 1 23.1093 24.1705 31.2955
489 1 27.5185 23.8513 32.2691
6043 1 32.1655 23.8642 32.6673
478 1 2.44079 25.423 31.902
480 1 7.15638 26.0366 32.3397
482 1 11.6348 26.1973 32.8638
563 1 3.93609 5.89325 41.8111
294 1 30.9915 8.25439 23.3512
6134 1 33.862 10.3908 41.7239
573 1 28.363 5.7259 42.6641
383 1 10.1198 14.9935 23.2145
428 1 15.6333 7.99256 33.3016
430 1 20.7065 8.30166 34.2456
432 1 25.1007 7.88558 35.3646
434 1 29.5824 7.95217 35.7751
507 1 4.42904 10.3935 35.6833
509 1 9.02796 10.316 35.4201
511 1 13.1155 10.415 36.3986
442 1 16.4119 12.6791 33.7485
444 1 20.7826 12.3711 33.7698
446 1 25.05 12.5799 34.9342
448 1 29.77 12.7823 35.6305
6069 1 33.6453 10.1943 36.977
521 1 4.99428 14.8705 34.9424
523 1 8.6079 14.8519 36.4494
456 1 15.5521 17.2725 33.6917
527 1 18.039 14.5435 36.8639
458 1 20.1268 17.5399 34.458
460 1 24.9655 17.3504 35.0622
698 1 26.5184 26.2454 50.3692
535 1 4.32244 18.9712 35.4663
537 1 8.97505 19.5661 36.2041
539 1 12.9064 19.4654 36.8321
541 1 17.8558 19.5959 37.0101
462 1 29.3859 16.7339 35.915
6095 1 32.6178 18.7695 37.2251
549 1 4.99336 23.7061 35.1185
551 1 9.45301 24.136 36.5193
553 1 13.5208 24.1333 37.062
470 1 15.7361 21.3023 34.1511
555 1 17.7954 23.9616 36.9406
472 1 20.2634 22.1106 34.3314
474 1 25.0287 21.8153 35.0236
476 1 29.5471 22.001 35.7307
6108 1 33.4217 23.9414 37.1744
501 1 22.5535 5.90544 37.8629
643 1 28.9069 5.93476 47.4955
429 1 18.3587 6.00878 29.792
484 1 16.0055 26.1816 33.5122
486 1 20.3166 26.8027 33.9793
488 1 24.7227 26.2198 35.1517
490 1 29.3113 25.9616 35.7526
492 1 1.83878 8.22257 38.4675
494 1 6.59535 8.43117 38.9411
496 1 11.151 7.93357 39.7477
498 1 15.1625 8.05674 39.8284
697 1 22.9615 23.9511 48.6992
504 1 30.8971 8.37473 40.1952
506 1 2.25173 12.7736 38.1077
508 1 6.32394 12.4197 38.8136
510 1 10.8001 12.2767 39.4746
512 1 15.1772 12.3602 40.0787
513 1 17.5855 10.3841 36.8609
514 1 19.132 12.6173 40.5051
515 1 22.3159 10.639 37.7924
517 1 27.1262 10.7208 38.7844
518 1 30.4549 12.3341 39.9668
524 1 10.8389 16.8756 39.5687
525 1 13.286 14.6408 36.545
529 1 22.0463 14.7324 37.7997
531 1 26.4409 14.4481 38.3495
6082 1 33.2451 14.2837 37.3294
520 1 2.05301 17.4524 39.0252
522 1 6.25795 16.7964 38.9006
526 1 15.411 17.1188 39.8067
528 1 19.7621 17.4884 40.9113
543 1 22.2422 19.2068 37.1205
545 1 26.6842 19.1519 38.3893
532 1 30.0628 16.2485 40.1777
534 1 2.39978 21.5341 38.1197
536 1 6.72736 22.0466 39.1731
538 1 11.238 22.4873 40.15
540 1 15.8291 22.229 40.5118
557 1 22.691 23.7273 37.4971
542 1 20.3194 21.2333 39.7428
559 1 27.4256 23.9192 38.3293
546 1 30.603 21.0728 39.871
548 1 2.34089 26.0148 37.7912
550 1 6.62081 26.0863 38.2791
552 1 10.7627 26.9621 39.4078
554 1 15.0262 26.1875 39.9818
556 1 19.4859 24.9266 40.7064
560 1 31.245 25.7265 39.8559
686 1 32.7694 21.3792 48.9708
562 1 1.245 8.00609 44.0028
684 1 27.2779 21.5595 50.4731
500 1 19.6076 8.19308 40.5507
502 1 24.8637 8.60265 41.1551
577 1 4.05923 10.6262 41.6259
579 1 8.63611 10.0589 42.873
581 1 13.3362 10.2474 43.1163
583 1 17.2947 10.4098 43.1715
585 1 21.945 10.1086 44.0605
516 1 24.6176 12.6586 41.0075
587 1 28.2374 10.2491 43.2814
634 1 5.32241 7.83286 50.9765
503 1 27.0985 6.26449 38.5304
591 1 3.93606 14.7435 41.9303
593 1 8.846 14.786 42.1403
595 1 12.8217 14.9279 42.5608
597 1 17.4913 14.9944 42.8418
599 1 21.9028 14.8814 44.244
601 1 27.8405 14.6801 42.8578
1963 1 3.83745 27.9772 41.2863
605 1 4.01042 19.5163 41.8682
607 1 8.71002 19.5263 42.4555
609 1 12.7485 19.7185 42.7565
611 1 17.5246 19.7352 43.0504
613 1 21.5349 19.4748 43.8852
530 1 23.9048 17.3423 41.1564
615 1 27.3797 19.3656 42.9761
619 1 3.91045 24.1713 41.4441
621 1 8.52926 24.2639 42.2161
623 1 13.0144 24.3113 43.7231
625 1 17.3028 23.8046 43.6138
627 1 21.9084 24.1801 43.9746
544 1 24.5984 21.8246 41.2859
629 1 28.339 24.0131 43.138
1893 1 4.80185 27.6403 35.1106
2033 1 2.97248 27.9183 47.8763
1969 1 17.3787 28.1563 43.7276
355 1 10.5089 6.30085 22.9924
558 1 24.5176 25.9396 41.3966
564 1 5.81348 7.88512 45.1034
566 1 10.9996 8.6525 46.041
568 1 14.8834 8.35166 46.5249
570 1 19.603 7.94829 46.2725
572 1 25.33 7.57404 45.6241
574 1 31.8128 8.13605 44.8582
576 1 1.42771 12.4188 44.296
578 1 5.95708 13.1895 45.0989
580 1 10.6158 13.0495 45.8654
582 1 15.2492 13.1249 46.268
584 1 19.892 12.5467 47.0937
586 1 25.4402 12.7025 45.7086
657 1 28.9304 10.6085 47.4772
588 1 30.8997 12.6856 44.7071
592 1 6.17229 17.1559 44.8879
596 1 15.043 17.3277 45.8642
671 1 29.206 14.5846 47.5867
590 1 1.55126 17.139 44.7929
594 1 11.0809 17.3795 45.3359
598 1 19.4773 17.2457 46.5412
600 1 25.2882 16.8618 45.6205
602 1 31.3808 17.2527 44.24
604 1 1.43408 21.609 44.4503
606 1 6.27951 21.8571 44.8048
608 1 10.7941 22.1262 46.0256
610 1 15.0272 21.8867 46.5275
612 1 19.6255 21.8834 47.387
614 1 25.4752 21.7474 45.1664
699 1 29.2104 24.064 47.1007
616 1 31.3721 21.0472 44.4523
618 1 0.812533 26.0173 44.1717
620 1 6.31314 26.2766 44.9284
622 1 10.0933 26.5796 45.8363
624 1 15.1945 26.0752 47.287
626 1 19.8541 26.2584 46.5441
691 1 7.25275 23.629 48.628
628 1 25.6808 26.2409 45.7909
1973 1 28.0384 28.0264 42.2234
630 1 32.399 25.6934 45.228
632 1 0.802137 8.45973 50.4596
695 1 17.3999 23.8529 49.9444
674 1 0.862605 21.7229 51.089
693 1 12.6104 24.4183 49.2895
7291 1 32.2147 28.1683 34.0946
642 1 26.7775 8.03242 50.0705
644 1 32.532 7.93929 48.6824
647 1 3.58455 11.0007 47.5825
1763 1 28.0253 28.3358 25.8482
649 1 8.33216 10.7094 47.9809
651 1 12.5481 10.2365 49.1449
653 1 16.7871 10.7877 49.9585
1831 1 23.399 28.3667 32.1992
655 1 22.7941 10.1698 48.5606
656 1 26.2209 12.7958 50.3685
658 1 32.7261 12.8691 48.725
661 1 3.30956 14.9781 47.9519
660 1 0.640598 16.9335 50.483
663 1 7.83347 15.3675 48.919
665 1 12.5695 15.0293 48.8885
667 1 16.9278 15.3587 49.6666
669 1 22.7809 14.7183 48.8568
670 1 26.4128 17.4146 50.1144
675 1 3.76976 19.5932 47.9453
677 1 8.14131 19.3824 48.4025
679 1 12.7554 19.6899 49.1792
681 1 16.9579 19.4038 50.0918
689 1 3.21517 23.4893 47.4353
683 1 23.1952 19.2976 48.6398
685 1 28.6818 19.3529 47.5811
672 1 32.8905 17.091 48.7595
2035 1 7.52457 28.0703 48.6875
1827 1 13.6728 28.379 30.3531
1757 1 14.5804 28.2491 23.8293
2041 1 23.2438 28.2931 48.5414
1903 1 26.798 28.4023 37.7605
1897 1 13.4707 28.3971 36.4593
569 1 16.8205 5.86015 43.4961
493 1 4.6164 5.77774 35.7603
427 1 14.6304 5.78067 29.8908
433 1 27.6542 5.86723 32.0929
648 1 5.58063 12.5612 51.0413
688 1 0.987279 26.3353 51.0599
968 1 0.644014 25.6745 73.5382
636 1 9.56383 8.03367 51.3435
638 1 15.1367 7.80644 52.1064
915 1 9.16745 6.03012 69.7071
646 1 1.09541 12.2673 51.1679
714 1 33.6331 8.14066 53.2671
717 1 3.37833 9.86797 53.8664
1062 1 31.1554 7.51634 78.2626
650 1 10.2918 12.5911 51.7074
652 1 14.3386 12.8957 52.6562
723 1 17.8065 10.2361 54.2695
725 1 23.7682 10.12 52.8153
726 1 27.451 12.3592 54.8494
727 1 30.4007 10.8364 51.5367
731 1 2.74568 14.3534 54.324
664 1 9.90288 17.2821 51.9644
737 1 18.3402 14.9806 54.0492
739 1 24.0321 14.7566 53.0438
741 1 30.3241 15.1609 52.0923
940 1 0.678233 16.8686 74.0402
745 1 2.1746 19.2089 54.3028
747 1 6.91786 19.5577 54.6009
1007 1 33.8898 10.2211 70.0635
666 1 14.7627 17.2281 52.4872
751 1 18.2156 19.6523 54.4292
753 1 24.2144 19.5231 53.2691
740 1 27.2655 17.1884 54.831
755 1 30.1065 19.0618 52.002
759 1 2.13618 23.5454 54.3231
761 1 7.47273 23.7545 54.9963
991 1 28.4188 5.76354 70.7247
678 1 10.1217 21.4393 51.8319
680 1 14.4369 22.312 52.4142
765 1 18.1121 24.3647 54.287
767 1 24.0988 24.0905 53.1339
926 1 0.681712 12.9376 74.2653
2103 1 3.09768 28.1861 54.606
917 1 15.4505 6.00037 68.9082
709 1 18.5745 5.75426 54.2144
692 1 9.86041 26.0545 51.8467
694 1 14.6977 26.1935 52.0493
1105 1 33.9238 19.537 76.1088
768 1 27.6066 26.2124 54.9585
1104 1 30.9324 21.8297 78.7888
770 1 33.5863 26.42 53.2846
716 1 0.606523 12.21 56.8106
742 1 33.87 16.8118 53.2067
708 1 15.7531 7.71446 56.5379
710 1 21.1724 7.87424 56.1625
712 1 27.1661 7.88043 54.9192
775 1 7.82194 6.03959 60.6912
719 1 7.3052 10.2733 54.7083
718 1 5.01146 12.327 57.5421
720 1 9.46863 12.6166 58.1612
721 1 11.9421 10.4739 55.5913
722 1 15.6811 12.9227 57.2779
724 1 21.2063 12.6987 56.156
795 1 24.8684 10.152 57.3223
797 1 31.0077 10.2474 56.2332
733 1 7.78697 14.6799 54.4062
734 1 8.88008 17.2487 58.0508
735 1 11.8278 15.2992 55.346
807 1 18.7632 14.819 58.7021
738 1 21.8173 17.3147 56.0754
809 1 25.1158 14.8852 57.6135
811 1 31.1776 15.0123 56.4721
732 1 5.09378 16.4276 57.8098
749 1 11.4873 20.0589 55.4073
736 1 15.6481 17.4226 57.1746
823 1 25.024 20.1315 57.8427
825 1 31.3033 19.5827 55.9472
707 1 12.12 6.02169 54.9977
746 1 4.85814 21.8225 57.4323
763 1 12.3153 23.847 55.4187
750 1 15.3353 21.6906 57.0834
752 1 22.0442 21.976 55.879
837 1 25.2548 24.0028 57.5982
754 1 27.7146 21.6184 54.6523
839 1 31.2709 23.6917 56.3796
1118 1 31.5735 26.3343 78.6432
760 1 5.45319 26.3082 57.4595
764 1 15.5415 26.5804 56.7648
758 1 0.696073 25.5927 57.4575
766 1 21.6479 26.3167 55.5188
756 1 33.9978 21.4191 53.5233
704 1 4.97668 7.95649 57.6949
706 1 9.86576 7.94794 57.8407
778 1 17.0415 7.94656 61.3957
780 1 22.7692 8.13975 59.9918
782 1 28.3755 7.82487 59.2066
690 1 5.35751 25.6004 51.7085
787 1 1.64173 9.50853 60.3955
789 1 7.6079 10.3667 60.7034
791 1 13.7119 9.95564 58.873
792 1 16.6578 12.6618 61.0841
793 1 19.1573 10.3055 58.7925
794 1 22.5863 12.5652 60.7608
865 1 26.5421 10.4832 61.5912
796 1 28.8427 12.4718 59.3419
867 1 31.7831 10.1395 60.591
801 1 1.85841 14.6452 60.6484
805 1 12.7671 15.3821 59.8435
808 1 22.7761 16.7535 60.0629
879 1 26.2783 15.0283 62.1934
881 1 32.0905 15.3683 60.6656
815 1 2.00821 19.081 60.217
817 1 6.74966 19.3394 60.8942
819 1 12.2677 19.2026 59.3485
821 1 19.3012 19.6535 58.8345
810 1 28.8997 17.1361 59.11
895 1 31.7941 19.2265 60.9628
829 1 2.58265 23.6942 60.015
831 1 6.96212 23.876 61.1257
748 1 8.97063 22.0335 58.0444
833 1 12.9592 23.9889 59.6445
820 1 15.917 21.7022 60.6584
835 1 19.3414 24.4571 58.9919
822 1 22.425 22.201 59.8722
907 1 26.2117 24.2221 62.0512
824 1 29.0382 21.6459 59.2318
909 1 32.022 23.9406 60.9849
668 1 20.7187 17.0791 51.6922
983 1 3.45045 5.89417 75.3475
762 1 9.30169 26.6104 58.0316
834 1 16.0903 26.3475 61.5567
836 1 22.5673 26.7129 60.1419
838 1 28.9106 26.1446 59.7052
774 1 4.4213 7.95724 63.5607
776 1 11.1881 8.3944 62.364
850 1 24.2054 7.77023 64.1411
702 1 0.538039 7.66568 56.1635
852 1 30.0843 8.19786 63.725
2463 1 34.1701 28.1564 76.2225
788 1 4.5767 12.5166 63.8371
790 1 10.2917 13.0001 62.6662
861 1 14.6833 10.6133 64.3962
863 1 19.5237 10.1672 63.5734
864 1 23.4346 12.2626 64.472
866 1 29.7905 12.7941 63.9236
937 1 33.4518 10.4336 65.4271
2389 1 22.4573 28.1211 72.5231
803 1 6.70965 14.5016 60.9851
875 1 14.4919 15.2051 64.2368
877 1 19.887 15.152 63.1477
878 1 23.486 17.4008 64.7647
880 1 29.3193 17.2125 63.0362
951 1 33.3601 14.4906 65.1018
802 1 4.07782 16.8561 63.9463
804 1 10.128 17.0773 62.9799
889 1 13.52 19.6914 63.9872
806 1 16.3039 17.4777 61.5822
891 1 20.069 19.3212 62.6133
893 1 25.5445 19.6041 62.439
1033 1 33.2285 19.2877 64.8571
816 1 3.86954 21.5579 63.8407
818 1 10.2457 21.9139 62.538
903 1 14.7804 24.0697 64.2007
905 1 19.1271 23.5149 63.5899
892 1 23.4394 22.216 64.6974
894 1 29.5683 21.7519 63.7952
964 1 32.7712 23.9872 64.9682
830 1 4.46127 25.9986 63.5139
832 1 11.0749 25.7122 62.2953
728 1 33.3302 12.1183 53.433
906 1 23.998 26.658 65.1378
908 1 29.6413 26.7035 64.0844
2385 1 9.5922 27.9679 74.3061
844 1 5.54934 8.23354 68.0215
2313 1 2.23546 28.2053 70.3719
846 1 11.4917 7.85605 66.8844
848 1 17.4953 7.99594 65.9817
711 1 24.4184 6.04594 53.125
920 1 24.578 7.67348 68.6775
922 1 31.1457 7.90802 68.2465
857 1 2.74923 10.338 66.3242
858 1 5.81193 12.3694 68.1604
859 1 8.52538 9.4796 65.3796
860 1 11.8818 12.4922 66.4173
931 1 15.4231 10.5984 68.7788
862 1 17.5147 13.1443 65.5007
933 1 22.1093 10.128 67.4235
935 1 27.6237 10.3582 66.1534
936 1 31.3667 12.3237 68.1141
871 1 1.67051 14.3242 66.9899
873 1 8.04707 15.0651 65.1265
945 1 14.7822 15.2342 68.9393
947 1 21.847 14.9152 67.5515
949 1 26.2327 14.7211 66.0638
885 1 1.61128 19.3139 66.5963
887 1 7.87826 19.3402 65.3199
874 1 11.1459 17.3647 66.7917
876 1 17.306 17.576 65.5494
959 1 15.066 19.4206 68.4235
961 1 21.3311 19.5383 67.1866
963 1 27.4517 19.538 66.7228
6537 1 32.882 18.2983 69.3752
950 1 29.9364 16.6893 67.0234
899 1 2.29039 23.97 66.513
901 1 7.57561 23.9428 64.995
888 1 11.186 21.4468 66.738
973 1 14.8209 23.9906 68.3728
890 1 17.1221 21.4291 65.8268
975 1 20.8299 24.0465 67.5353
977 1 26.6059 24.1554 66.6624
1035 1 30.8273 22.3153 67.8299
900 1 5.02581 26.0296 68.3656
1116 1 27.0523 26.0456 78.026
902 1 11.4259 26.1235 66.8334
904 1 17.8913 26.6159 65.9434
682 1 20.7356 21.2153 51.8941
976 1 24.7397 26.1608 69.1799
978 1 30.8551 26.2893 68.7595
1038 1 1.25253 26.4298 78.021
713 1 30.3107 6.63964 51.8227
916 1 12.9499 8.06755 71.3848
918 1 18.9024 7.98464 70.2845
1077 1 33.9091 10.4833 76.141
927 1 2.63378 10.3681 70.8888
929 1 9.36074 10.4567 69.9572
932 1 18.376 12.5503 70.1549
1003 1 22.057 10.3622 71.6181
934 1 25.3331 12.3585 68.8891
1005 1 28.1413 10.165 70.7478
1006 1 31.7201 12.7193 72.7091
941 1 2.91257 14.4177 71.0963
872 1 5.10431 16.972 68.5164
943 1 9.114 15.352 70.0678
930 1 12.386 12.4057 72.0395
948 1 24.9967 17.0358 68.8005
1019 1 28.7578 14.9742 70.911
955 1 2.47238 18.7593 70.7696
957 1 8.36598 19.4008 69.9305
944 1 12.3777 16.8306 71.4134
946 1 18.501 17.0221 70.0633
1031 1 22.1597 19.3819 71.6
1020 1 28.5434 19.4253 70.6308
1022 1 31.983 16.9677 73.4264
969 1 3.03476 22.9384 71.0582
886 1 5.59511 21.2683 68.34
971 1 8.62001 24.0336 69.6058
958 1 12.4509 21.5131 70.7904
960 1 18.083 21.2442 70.3122
1045 1 21.9805 23.5236 71.9417
962 1 24.7845 21.6173 69.2375
1047 1 28.8418 23.627 70.9081
1034 1 32.0888 21.8128 72.499
777 1 13.5968 5.82641 59.3622
1119 1 34.0419 24.242 76.061
972 1 11.9997 25.7506 70.9576
974 1 18.5404 26.4064 70.6692
843 1 1.78576 6.20924 67.0367
1048 1 32.3203 26.3485 72.1959
654 1 20.138 12.2901 51.6966
914 1 6.26662 8.07063 72.5027
769 1 30.1733 23.7474 51.9822
1102 1 26.7359 21.4951 77.7458
988 1 19.6208 7.67218 75.4402
990 1 25.4077 7.80246 73.4498
1042 1 13.5012 26.0968 75.6015
992 1 32.5724 8.44586 72.9653
997 1 4.17658 10.3155 75.0413
928 1 6.35323 12.6881 72.4852
999 1 9.36127 10.2393 74.5907
1000 1 13.4425 12.7883 76.1657
1001 1 16.3301 10.4103 73.4458
1002 1 19.5237 12.5918 74.5792
1004 1 25.8861 12.5503 73.0855
1075 1 29.0563 10.2933 75.0164
1058 1 20.9199 8.01734 79.0724
1011 1 4.39939 14.8869 76.0756
1013 1 9.78033 14.7461 74.6429
1014 1 13.6813 16.6091 76.2279
1015 1 16.5029 15.4615 72.9322
1017 1 21.779 14.8497 72.3517
1016 1 19.9194 17.2091 74.4744
1089 1 29.0473 15.1924 75.6557
942 1 6.37908 17.4815 73.1075
1027 1 10.4711 19.6684 74.5151
1029 1 15.8916 19.4699 72.9891
1018 1 25.5551 17.1411 73.3733
1103 1 29.4408 19.5252 74.6861
956 1 6.51663 21.5504 72.9976
1041 1 10.6429 23.5084 74.1691
1028 1 13.806 20.9756 76.1534
1030 1 19.3303 21.659 74.5333
1032 1 25.7709 21.572 73.7132
1117 1 29.6071 24.0557 75.4692
970 1 6.15995 25.9262 72.2082
1043 1 15.7017 23.9967 73.2474
847 1 14.0727 5.99611 64.9962
1044 1 19.7531 26.4629 74.8871
1046 1 25.814 25.9985 73.7046
1115 1 23.1273 23.8238 76.4323
982 1 1.09305 8.23387 78.1807
984 1 7.62652 7.72908 77.0455
1086 1 20.5932 17.2816 79.1921
986 1 13.3097 8.17839 75.9594
773 1 2.34524 5.78782 59.909
676 1 5.27786 21.6921 51.5522
1060 1 27.183 7.73171 77.9392
1055 1 11.4797 5.79972 78.5326
1040 1 7.76934 25.6064 76.8861
996 1 1.29565 12.3563 78.7292
998 1 7.46419 12.3096 77.0688
1069 1 11.0841 10.3957 79.2592
1071 1 16.9527 10.2782 78.004
2383 1 3.86486 28.097 75.6636
1073 1 23.3625 10.2969 76.1479
1074 1 26.6224 12.4877 77.5126
1076 1 31.1829 12.3454 78.4594
1010 1 1.03179 16.7367 78.8449
1012 1 7.29968 17.4187 77.7199
923 1 33.463 5.98705 65.5963
1085 1 17.1995 14.8698 77.5085
1087 1 23.3003 14.6299 76.4628
1088 1 26.8729 16.4971 78.5927
1090 1 31.3251 17.822 78.4998
1025 1 3.35701 19.4508 75.9288
1097 1 10.9245 19.0388 79.1212
1099 1 17.0991 19.3874 77.4264
851 1 26.3311 5.82347 61.4895
1101 1 23.2332 19.1853 77.1298
1039 1 4.2728 23.8379 75.5165
1024 1 0.505897 22.1131 78.6534
1026 1 7.48555 21.2416 77.092
1111 1 11.5878 23.415 78.5776
1113 1 17.4853 23.9657 77.0279
662 1 5.24495 17.1898 51.1989
2111 1 23.9969 28.1492 53.1883
2387 1 16.0882 27.8812 73.2857
2107 1 11.5746 28.2852 55.1242
845 1 8.34206 5.86047 65.1845
921 1 27.6743 5.87654 65.6003
2455 1 11.3446 28.0351 79.152
696 1 20.5541 26.863 51.1295
1052 1 3.02344 7.70475 83.5108
1054 1 8.92967 8.05642 81.5429
1056 1 14.7682 7.59573 80.3325
1339 1 22.9135 5.77686 99.9097
1269 1 22.976 5.70732 93.1132
12087 1 0.635875 21.9151 102.255