ITEM: TIMESTEP
331000
ITEM: NUMBER OF ATOMS
16000
ITEM: BOX BOUNDS pp pp pp
3.6057355290024162e-01 1.0183942644710281e+02
5.7122461611173350e+00 9.6487753838879229e+01
-5.2240455462784467e+00 1.0742404554627581e+02
ITEM: ATOMS id type x y z
5731 1 34.0356 5.88261 7.56673
6 1 14.7854 7.59129 -4.93474
8 1 19.5546 7.79974 -4.32973
10 1 24.3301 7.93327 -3.47041
12 1 29.0021 8.12488 -2.88865
85 1 2.89617 10.2475 -3.24019
87 1 7.66257 10.0352 -2.62198
89 1 12.0374 9.98635 -1.89003
20 1 15.105 12.137 -4.53613
22 1 19.6279 12.4258 -3.86716
24 1 24.2918 12.7008 -3.25606
26 1 28.7571 12.5294 -2.41898
28 1 33.0165 12.7986 -1.69224
99 1 3.49463 15.5019 -3.18034
101 1 8.14316 15.1862 -2.70896
42 1 33.0444 16.8057 -1.81419
113 1 4.18448 19.2052 -3.35025
115 1 8.10194 19.7436 -2.56716
34 1 15.1171 16.9487 -4.65557
36 1 19.8885 17.2302 -4.31542
38 1 24.4484 17.1484 -3.44465
40 1 28.6761 17.3053 -2.4665
127 1 4.17447 23.6323 -3.82843
129 1 8.15901 23.84 -2.57548
131 1 12.2366 23.5817 -2.10159
73 1 7.74516 5.88006 -2.37064
50 1 19.7805 21.6593 -4.01837
52 1 24.1633 21.6891 -3.33155
54 1 28.8866 21.3979 -2.26174
56 1 32.731 21.6064 -1.58265
69 1 31.185 24.1453 -5.40564
62 1 15.2033 26.1873 -4.81657
64 1 19.8217 26.3348 -3.80315
66 1 23.9381 26.4913 -3.0781
68 1 29.0481 26.1686 -2.62362
70 1 33.0558 25.883 -1.33055
10878 1 0.880427 8.77444 -0.159162
72 1 5.44157 8.20093 -0.0571416
74 1 10.2002 7.64299 0.614079
76 1 14.6852 8.10718 1.48479
10956 1 0.532592 12.5595 5.72772
10982 1 1.04153 21.687 5.69084
14 1 33.0989 8.03681 -2.11176
10891 1 1.12785 12.4988 -0.42758
86 1 5.60426 12.8237 0.224824
88 1 9.75672 12.4836 0.329318
90 1 14.5264 12.6269 0.915342
91 1 16.5295 10.1124 -1.27433
93 1 21.7626 10.6948 -0.913246
95 1 26.0151 10.1001 0.423368
97 1 30.7719 10.4707 0.845106
10904 1 0.716809 17.253 -0.623031
102 1 9.81812 17.0139 0.49327
103 1 12.9548 14.5959 -2.2105
105 1 17.0873 15.5525 -1.75872
107 1 21.759 14.9929 -0.819824
109 1 26.1906 14.904 0.690936
111 1 30.8192 14.9954 1.04228
100 1 5.25419 17.4563 0.250638
117 1 12.6641 19.3748 -2.42244
119 1 16.8142 19.2673 -1.64028
121 1 21.4786 19.6341 -0.536198
123 1 25.9761 19.0093 0.509449
125 1 31.587 19.3684 1.73139
10917 1 1.75899 21.6738 -0.353036
114 1 5.68988 21.9412 -0.361319
116 1 10.1958 21.7721 0.836482
118 1 14.531 22.1349 1.32641
133 1 16.7663 23.8438 -1.20557
135 1 21.7386 24.0346 -0.963781
137 1 26.2598 23.704 0.255507
139 1 30.2265 23.6134 0.793934
10930 1 0.336129 26.1474 -0.168315
128 1 5.09553 26.4486 -0.246822
130 1 9.75114 26.2111 1.15447
10969 1 0.236384 17.1421 5.79955
281 1 1.19231 5.5412 15.5083
287 1 15.2534 5.91954 17.8865
78 1 19.1542 8.23022 1.96454
80 1 23.7098 8.27041 3.51811
82 1 27.8288 7.98559 3.5568
84 1 32.4594 7.50055 4.36424
155 1 2.73138 10.3815 2.97241
157 1 7.33836 9.83086 3.35475
159 1 11.2774 10.5297 3.86824
92 1 18.7915 12.6439 2.17452
161 1 16.3729 10.9504 4.87643
94 1 23.3942 12.6017 2.98526
96 1 27.9544 12.6159 3.99174
98 1 32.8627 12.2048 4.46864
169 1 3.24663 15.0013 2.59351
171 1 7.60692 14.6296 4.03042
173 1 12.3803 14.5224 3.6961
175 1 16.7116 15.6314 5.14002
106 1 18.6981 17.3391 2.19614
110 1 27.9554 16.897 3.85537
112 1 32.74 17.5536 4.85206
183 1 3.32514 19.53 3.52554
185 1 7.75584 19.4365 3.8569
104 1 14.3046 17.1734 1.64594
187 1 11.7599 19.854 4.6005
189 1 16.3354 19.9797 5.30728
108 1 23.6809 17.0769 2.91614
124 1 28.2384 21.7189 3.63028
197 1 3.51536 24.0131 3.10491
199 1 8.02722 23.3645 4.36811
201 1 11.7316 23.8854 4.74001
120 1 18.9505 22.0289 2.33763
203 1 16.2928 23.8152 5.42043
122 1 23.5002 21.4692 3.34515
126 1 32.872 21.9821 4.22128
147 1 15.8525 6.53638 4.76225
132 1 14.3774 26.5737 1.7499
134 1 18.8412 26.1597 2.1077
136 1 23.5431 25.994 3.07159
138 1 27.6465 26.565 3.82817
140 1 32.903 26.2367 3.92758
5861 1 33.4815 6.01105 19.8773
142 1 4.8388 8.25933 6.44683
144 1 9.67569 8.05235 6.64069
146 1 13.6665 7.94189 7.85033
148 1 17.9627 8.55174 8.24828
349 1 28.8006 24.0581 19.5357
141 1 2.84737 6.01628 2.96036
156 1 5.05214 12.7589 6.37925
158 1 9.60344 12.7876 6.95842
160 1 14.0405 12.4682 7.63355
163 1 20.1805 10.8447 5.78109
165 1 25.3035 10.3966 6.91546
167 1 29.9082 10.0436 7.4235
170 1 4.50345 17.1332 6.64702
177 1 21.4215 14.6483 5.6851
179 1 26.1582 14.9452 6.61448
181 1 30.2363 14.8194 7.24765
350 1 30.5154 26.169 22.6319
172 1 9.32311 17.0226 6.47913
174 1 13.7642 16.9748 7.48204
176 1 18.1626 17.1175 8.52121
191 1 20.6867 19.2168 5.83252
193 1 25.2471 19.6082 6.56788
195 1 29.8878 19.5702 6.93828
1613 1 6.69794 28.1895 9.89704
151 1 24.8961 5.79722 6.16268
184 1 5.37159 21.8508 6.88226
186 1 9.77571 22.0537 8.47935
188 1 13.7485 22.0787 7.64934
190 1 18.5327 21.4702 8.18855
205 1 21.1648 23.9278 5.57779
207 1 24.8699 24.2404 6.55876
209 1 30.1999 24.2956 7.11381
334 1 26.2362 21.7115 21.9122
198 1 4.77292 26.1579 6.16053
200 1 9.31167 26.0514 7.79223
202 1 13.7431 26.8063 7.79634
204 1 18.1394 26.1656 8.88417
79 1 21.1846 5.86778 -0.524728
206 1 22.826 26.2316 9.6181
5835 1 33.8562 19.4263 14.2048
332 1 21.5832 22.1133 21.6608
330 1 17.0166 21.9602 21.1978
213 1 7.17752 6.46949 10.1895
1475 1 12.2355 28.2563 -2.22513
215 1 11.5808 6.00624 10.4107
328 1 12.4007 21.8915 20.2393
150 1 22.2177 8.14959 9.08227
152 1 26.9441 7.48853 10.0395
154 1 31.372 8.13168 10.9494
225 1 1.97044 10.6915 9.1587
227 1 6.55403 10.5909 9.96972
229 1 10.8576 10.2876 10.6574
162 1 18.3969 12.4329 8.59981
231 1 15.2931 10.3692 11.6822
164 1 22.6979 12.8497 9.09635
233 1 19.7874 10.9895 11.9806
166 1 27.2866 12.7028 10.242
168 1 31.6703 12.6278 10.925
239 1 2.3233 15.2078 9.66224
241 1 6.93285 15.3908 9.9246
243 1 11.6749 15.0418 10.4831
245 1 15.6558 14.8206 11.329
178 1 22.749 17.1476 8.91566
247 1 20.4568 15.0114 12.0207
253 1 2.28454 19.8332 9.66541
255 1 7.18724 19.4291 9.9123
257 1 11.8702 19.6613 10.7384
259 1 16.4456 19.9691 11.426
261 1 20.4278 19.3062 11.8415
180 1 27.3189 17.313 10.1552
182 1 31.4619 17.2153 10.3834
267 1 2.25137 24.0696 9.47836
269 1 6.24398 23.7838 10.1116
271 1 11.8233 24.1915 11.4527
273 1 15.6176 24.4265 11.6006
275 1 20.3168 23.9014 12.4518
192 1 22.9804 21.2145 9.50085
194 1 26.9754 21.7735 9.73019
196 1 32.457 21.6229 10.2774
381 1 6.05724 14.699 22.2885
306 1 26.5313 12.5989 22.7627
143 1 7.46566 5.92272 3.37613
208 1 26.7614 26.1499 9.78304
210 1 31.5161 26.6258 10.8039
212 1 4.20845 8.25432 13.0835
214 1 8.71784 8.52823 13.4612
216 1 13.0726 8.58218 13.9824
218 1 17.9959 7.80196 14.4477
220 1 22.3739 7.84815 15.7358
342 1 12.2217 26.1829 20.5219
226 1 3.92608 13.1217 12.498
228 1 8.43689 13.2982 13.3573
230 1 13.1755 13.0902 13.5187
232 1 17.6251 12.6004 15.0867
234 1 21.5417 12.901 15.7205
235 1 24.3221 10.5068 12.7986
237 1 28.8402 10.5122 13.7956
5809 1 33.4941 10.7369 13.8109
309 1 1.60686 15.551 15.8838
240 1 4.20934 17.4662 13.2865
246 1 17.5364 17.3847 14.9194
248 1 22.244 17.0416 15.5972
249 1 24.2049 14.8986 12.8774
251 1 29.2648 15.2475 13.8933
5822 1 33.7556 15.4205 14.0115
242 1 8.84966 17.3548 13.4369
244 1 13.8089 17.1589 14.2109
263 1 24.5674 19.4918 12.3857
265 1 29.2552 19.9571 13.334
348 1 25.9864 26.3072 22.6378
254 1 4.2481 22.094 13.2822
256 1 8.8587 21.927 13.1418
258 1 13.2465 21.8507 14.0641
260 1 17.9781 21.8071 14.7786
262 1 22.3384 21.459 15.8966
277 1 24.9629 23.8654 13.253
279 1 29.002 24.013 13.3039
5757 1 33.9876 15.3841 7.82732
346 1 21.6605 25.9775 21.6954
268 1 4.08882 26.3573 12.7541
270 1 8.87979 26.5484 13.8805
272 1 13.2457 26.4289 14.3909
274 1 17.572 26.3781 14.9719
276 1 22.4953 26.2896 15.9055
149 1 20.3879 6.26417 6.25221
407 1 0.77956 23.9793 22.3074
283 1 6.15761 5.81298 16.2851
285 1 10.5971 6.42657 17.0613
289 1 18.9709 5.8151 18.6193
222 1 26.8979 7.94256 15.8077
224 1 31.4152 7.74261 16.8336
295 1 1.89433 10.1145 15.5952
296 1 3.9614 12.9493 18.8144
297 1 6.22153 10.5415 16.7008
299 1 10.8628 10.8906 16.8108
301 1 14.7172 10.1696 17.0579
303 1 20.1109 10.3714 18.5006
236 1 26.6332 12.5183 16.603
305 1 24.7028 10.1616 19.1741
238 1 31.42 12.2992 16.5852
311 1 6.27075 14.6943 16.1791
313 1 10.9057 15.6331 17
315 1 15.009 14.9678 17.337
317 1 19.98 15.0075 19.354
323 1 1.26034 19.561 15.9753
310 1 3.64456 16.9931 18.9694
325 1 6.40401 19.7523 16.2936
327 1 10.5249 19.3103 16.708
329 1 15.1919 19.6364 17.7951
331 1 19.7337 19.4233 18.5412
333 1 23.5187 19.3655 18.9324
250 1 26.6735 17.1585 16.155
252 1 30.78 17.0918 16.7967
337 1 1.66734 24.2467 16.3251
339 1 6.33379 24.6224 16.3234
341 1 10.3801 23.8732 16.7506
343 1 14.9721 23.872 17.849
345 1 19.7349 24.352 18.2201
264 1 26.4936 21.7107 16.2705
266 1 31.2167 22.2076 16.8393
338 1 3.23499 26.4821 19.2082
326 1 7.98038 22.0949 19.9013
83 1 30.7005 5.85818 0.484998
347 1 24.0393 24.1537 19.3565
278 1 26.4495 26.3079 16.3165
280 1 31.6824 25.9848 16.8738
282 1 3.72242 8.02439 18.6242
284 1 8.42214 8.25323 19.946
286 1 12.9591 8.33538 20.3531
288 1 17.4154 8.27275 21.3056
290 1 22.2042 7.69869 21.4842
292 1 26.1612 7.83601 22.6079
340 1 8.40712 26.6925 20.1109
217 1 15.934 5.87674 11.5855
365 1 0.847397 10.3808 21.3673
221 1 24.0392 5.93065 12.674
298 1 8.37616 12.7731 19.484
300 1 12.6712 12.3804 20.4377
302 1 17.2949 12.8586 21.2197
304 1 21.8703 12.383 22.2432
344 1 17.0903 26.4442 21.2353
307 1 28.7347 10.1716 19.3992
5783 1 33.8323 24.6446 8.26675
5874 1 33.5591 10.1525 20.2564
379 1 0.629483 14.6635 21.7251
5913 1 33.5167 23.8219 20.4629
319 1 23.8678 14.8849 18.8871
320 1 26.2814 17.2695 22.1861
321 1 28.2651 14.7515 19.8409
5887 1 33.0469 14.9232 19.0896
393 1 1.06458 19.3176 22.0218
395 1 5.91063 19.3728 22.2718
312 1 8.32675 17.4244 19.6708
314 1 12.604 16.8425 20.4301
316 1 17.1006 17.6047 21.344
318 1 21.7968 17.5273 22.0557
335 1 28.8476 19.428 19.6852
5900 1 33.5603 19.4258 19.9831
324 1 3.70509 21.8656 19.0992
5744 1 34.1372 9.95458 7.74616
7161 1 33.3636 28.5775 20.4293
1623 1 28.9779 28.1028 13.6619
1681 1 0.901443 28.2459 15.5509
1471 1 3.29019 28.5198 -3.52392
1483 1 31.0644 28.0697 1.05691
367 1 5.55593 10.0008 21.8969
322 1 31.0213 16.7422 22.9603
336 1 31.1845 21.4347 22.6191
5848 1 34.0442 24.0681 13.9017
1619 1 20.4428 28.3945 11.9404
1481 1 26.1499 28.3256 -0.119946
1549 1 21.2062 28.024 5.68176
81 1 25.9544 6.25487 -0.0497986
223 1 29.5117 5.72007 13.3675
77 1 16.5717 6.16036 -1.4018
211 1 2.43767 6.03665 9.59657
409 1 5.2891 24.0189 22.6116
352 1 2.98448 8.56276 24.7926
354 1 6.87101 8.32527 25.3801
425 1 9.42237 6.22368 29.5989
1763 1 28.227 27.9936 25.3635
688 1 0.760368 25.8132 50.1643
1821 1 0.659319 28.2021 28.8038
5926 1 32.869 6.22758 26.6812
397 1 10.4004 19.9075 23.1741
366 1 3.05971 12.344 25.3548
368 1 7.60511 12.4376 26.2555
6121 1 33.8053 6.2086 41.1001
371 1 14.5679 10.7902 23.9717
373 1 19.0884 10.5567 24.9678
375 1 23.8099 10.21 25.035
377 1 28.172 9.98736 26.2288
5939 1 32.9311 10.459 26.5865
382 1 7.6395 17.2088 25.9069
383 1 9.98536 14.8663 23.2049
385 1 14.3786 14.9083 24.0299
387 1 19.0298 15.2409 25.0887
389 1 23.5341 15.0954 25.1372
391 1 28.1459 14.6126 26.2425
359 1 18.4875 5.98586 23.9996
380 1 3.15488 16.9715 25.0738
501 1 22.399 6.0727 37.5628
399 1 14.2753 19.4127 23.9175
401 1 18.2485 19.5705 24.9381
403 1 23.9721 18.813 25.5161
405 1 28.1347 19.1203 25.2749
394 1 3.04843 21.5893 25.5722
396 1 7.58661 21.849 26.2113
411 1 10.305 23.9642 23.5431
413 1 14.7226 23.9805 23.7871
398 1 12.3535 21.9153 27.1299
415 1 19.1226 24.3446 24.5128
417 1 23.4774 23.5358 25.133
419 1 28.2694 23.6562 25.4828
5978 1 32.6788 23.745 26.4732
294 1 30.5793 7.86798 23.0359
408 1 3.05357 26.1249 25.9712
410 1 7.51771 25.9472 26.7481
1971 1 21.1045 28.0712 43.811
503 1 27.1759 6.41663 38.3212
700 1 32.7281 25.6537 48.8542
361 1 23.9791 6.3066 25.3032
356 1 11.9585 8.05118 26.9071
358 1 16.4888 8.27712 27.6621
360 1 21.2308 8.26128 28.582
362 1 25.9203 8.03412 28.962
364 1 30.5107 8.00546 29.7257
435 1 0.522996 10.5164 28.3554
437 1 5.02501 10.3426 28.6083
439 1 9.62915 10.7019 29.6943
370 1 12.2198 12.6716 26.9717
372 1 16.8804 12.8942 27.4113
374 1 21.0503 12.4816 27.9918
376 1 25.4143 12.4699 28.7861
378 1 30.5234 12.2767 29.4175
449 1 0.73677 14.5415 28.2357
451 1 5.3264 14.226 29.2664
453 1 9.59101 15.0044 29.752
5952 1 32.2203 14.881 25.9795
7226 1 32.5185 28.0376 26.6816
465 1 4.9763 18.7503 28.944
467 1 9.36669 19.1788 29.7107
384 1 11.4319 17.2792 27.0784
469 1 14.0456 19.1038 30.4704
386 1 16.6543 16.8962 28.3181
388 1 21.3363 17.152 28.3948
390 1 25.6024 17.196 28.5422
392 1 30.3119 17.1977 29.0586
5965 1 32.6112 18.9623 26.3601
641 1 22.5542 6.27242 48.4583
479 1 5.24446 23.4959 29.1534
481 1 10.1082 23.7777 29.8885
483 1 14.4119 23.868 30.9299
400 1 16.7284 21.6078 27.6366
402 1 20.8991 21.1586 28.1724
404 1 25.5627 21.5621 28.7474
406 1 30.2775 21.7057 29.1771
2037 1 12.0013 28.4091 48.5262
412 1 12.0923 26.5261 26.7503
689 1 3.01721 23.7722 47.7489
414 1 16.7203 26.2525 27.487
416 1 21.2907 25.5049 28.5041
418 1 25.6818 25.782 28.7225
420 1 30.0551 26.1914 29.283
422 1 2.13455 7.70775 31.9224
424 1 6.81485 8.13207 32.3369
426 1 11.4261 8.05835 33.2285
643 1 29.5731 5.9765 47.3724
660 1 0.396155 17.1958 50.6246
698 1 26.5868 26.0834 50.0799
433 1 27.6141 6.20667 31.9886
2041 1 22.7408 28.457 48.304
436 1 2.2159 12.115 31.7253
438 1 6.91591 12.4672 32.3089
440 1 11.6354 12.6261 33.4006
441 1 14.4541 10.315 30.5052
443 1 18.4388 9.69894 30.9867
445 1 22.9686 10.9173 31.0714
447 1 28.081 10.7742 32.083
6004 1 32.8169 10.651 32.8347
452 1 7.57166 17.085 32.4797
455 1 14.1016 14.488 30.0326
457 1 18.5156 14.7985 31.1538
459 1 23.5146 14.7398 31.9609
461 1 27.821 14.9102 32.3068
6017 1 32.5206 14.9218 32.7138
450 1 2.86309 16.7481 31.8361
454 1 12.0166 17.3663 33.0622
471 1 18.3501 19.2982 31.1861
473 1 22.928 19.1469 31.8762
475 1 27.5214 19.5195 32.1513
6030 1 32.2357 19.2549 32.6869
464 1 2.55381 21.1267 31.6414
466 1 6.80538 21.4997 32.3845
468 1 11.5103 21.5301 33.3268
485 1 18.4847 23.8946 31.1478
487 1 22.2802 23.6459 31.85
489 1 28.0775 23.7375 31.9576
6043 1 32.7167 23.8683 32.8686
478 1 2.35712 25.5446 32.2698
480 1 6.96474 26.2117 32.5154
482 1 11.5044 25.9246 33.2429
355 1 10.2242 5.92232 23.1628
674 1 0.860907 21.2961 50.4982
1967 1 11.9357 28.1698 43.3784
495 1 9.08457 5.67519 35.529
428 1 16.0333 7.88857 34.0096
430 1 21.1364 8.22736 34.2148
432 1 25.1144 8.28356 34.4276
434 1 29.575 8.28584 35.8729
308 1 30.7799 12.2053 23.0581
507 1 4.26177 10.1333 35.5103
509 1 9.00073 10.5124 35.649
511 1 13.7708 10.1452 36.3911
442 1 16.4003 12.8541 33.7258
513 1 18.0584 10.245 37.449
444 1 20.7752 12.7128 34.7675
446 1 25.7002 12.1007 35.0865
448 1 29.7394 12.2279 35.9875
6069 1 32.9838 9.40368 37.6649
521 1 4.13767 14.192 35.6018
523 1 8.78585 15.1297 35.87
525 1 13.2707 14.756 36.3081
462 1 29.611 16.9187 36.0485
6082 1 33.2386 14.9492 37.2311
535 1 4.46219 19.0282 35.5603
537 1 8.9758 19.1176 35.9741
539 1 13.3689 19.2107 37.0711
456 1 15.6513 16.7438 33.9696
458 1 20.1367 17.2785 34.3994
460 1 26.0192 16.9195 35.2317
549 1 4.44714 23.7455 35.0789
551 1 9.17856 23.642 35.7157
553 1 13.0427 23.8364 37.0475
470 1 15.8117 21.5405 33.9286
472 1 20.1231 21.681 34.8573
474 1 25.064 21.2726 34.6939
476 1 29.6233 21.5009 35.0271
670 1 26.4121 16.6369 50.2904
484 1 16.0108 25.6039 33.8423
486 1 20.7428 26.3611 34.3334
488 1 25.1143 25.9602 34.7565
490 1 29.3676 25.4054 35.4778
492 1 1.66629 7.79198 37.9738
494 1 6.34958 7.70315 37.8236
496 1 10.8976 7.83314 38.9566
1833 1 27.3679 27.9698 32.0917
477 1 0.657036 23.8467 28.4142
498 1 15.493 7.61542 40.0655
499 1 18.4716 5.80222 36.8918
686 1 32.457 21.7611 49.1814
504 1 30.4564 7.94921 40.2943
695 1 16.8373 23.5846 49.774
506 1 1.85465 12.6252 38.6191
508 1 6.03195 12.2147 38.4907
510 1 10.6613 12.4428 39.1944
512 1 15.244 12.1397 39.7584
514 1 20.0953 12.491 41.0178
515 1 22.5899 10.3731 38.2259
517 1 26.9092 10.1528 39.137
518 1 30.3632 12.7224 39.953
527 1 18.0241 14.4554 37.2995
529 1 22.7669 14.7065 37.6538
531 1 27.0892 14.7251 38.9741
530 1 24.8157 16.9539 41.1332
532 1 30.5584 17.2931 40.4731
520 1 1.39687 17.1185 37.9598
522 1 5.93915 16.9302 39.0901
524 1 10.6802 16.873 39.155
541 1 18.0179 19.323 37.1187
526 1 15.6714 16.6864 40.3055
543 1 23.0292 19.307 37.6116
545 1 27.065 19.7593 38.554
6095 1 33.1385 19.4893 37.2272
534 1 2.46586 21.4081 38.0775
536 1 6.32954 21.4902 38.9145
538 1 11.1306 21.5418 39.5479
540 1 15.2755 21.4669 40.1267
555 1 17.8514 23.9639 36.9776
557 1 22.5008 23.7448 37.8771
542 1 19.7292 21.3168 40.4104
559 1 27.3 23.6367 38.1848
6108 1 33.0998 24.0432 37.2002
546 1 31.0036 21.8832 39.8698
548 1 2.02274 26.1194 38.4592
550 1 6.26317 26.0697 38.8043
552 1 11.1985 26.2063 39.468
554 1 15.1932 26.2711 40.269
684 1 26.3618 21.4442 50.2025
560 1 30.6072 25.752 40.5742
632 1 0.663044 8.0976 50.7236
562 1 1.46735 7.62507 44.2159
1901 1 22.6969 28.5124 37.91
683 1 22.6396 18.8885 48.5324
681 1 16.7898 19.0263 49.5994
500 1 19.6545 7.82826 40.701
1899 1 18.1507 27.991 37.4913
502 1 24.5245 8.32526 42.7606
2035 1 7.69766 28.4614 48.3548
574 1 31.3432 7.86725 44.7712
577 1 3.96795 10.5046 41.4652
579 1 8.47053 9.8218 42.3265
581 1 12.4045 10.0026 42.9863
583 1 17.0794 9.50309 43.2514
585 1 21.6543 10.2803 44.277
516 1 23.9854 12.6829 41.5497
587 1 27.7274 10.499 42.9362
1893 1 4.40743 28.0307 34.8835
591 1 3.8425 14.6947 42.5843
593 1 8.39594 14.5035 42.0659
595 1 12.4835 14.7147 42.8865
597 1 17.1628 14.5321 43.2527
599 1 22.1243 14.8765 44.2472
601 1 27.6869 15.1863 43.0664
605 1 4.26034 19.2959 41.5933
607 1 8.48592 19.2191 42.4023
609 1 13.067 19.0409 42.6993
611 1 17.2377 19.1063 43.4642
528 1 20.1221 17.1311 40.6389
613 1 21.918 19.1157 43.9713
615 1 28.0229 19.6517 43.5425
463 1 1.36359 19.1727 27.9662
619 1 3.65981 23.8295 41.9176
621 1 8.005 23.8596 42.5613
623 1 12.5198 23.7656 43.1426
625 1 17.3122 23.4087 43.7558
627 1 22.5807 23.5671 44.3332
544 1 24.4343 21.6007 41.3458
629 1 27.943 24.1484 42.8566
1761 1 23.5872 28.1978 25.0242
679 1 12.1766 19.0343 49.2334
675 1 2.97568 19.3913 47.8039
556 1 20.1491 25.8067 40.9161
558 1 24.8091 26.1944 41.3859
357 1 14.6441 5.92286 23.9765
630 1 31.7835 26.3409 44.2149
564 1 5.59226 8.14878 44.8805
566 1 9.78377 7.2597 45.7398
568 1 14.407 7.41685 46.5839
570 1 18.9427 7.93756 46.7311
572 1 25.4572 7.40813 46.4877
677 1 7.62117 19.4656 48.9373
576 1 0.865526 12.1484 44.369
647 1 3.79976 10.1928 47.8788
578 1 6.44144 12.7412 44.8489
580 1 10.4984 11.7968 45.9171
582 1 14.3868 11.9571 45.9244
584 1 19.1149 11.763 46.636
586 1 25.7856 12.3619 46.0804
657 1 29.0117 10.1835 47.3315
588 1 31.603 12.561 44.0962
661 1 3.78748 14.7467 46.9777
600 1 25.5822 17.0188 45.6085
671 1 28.9961 15.0445 46.914
602 1 31.7408 17.3424 44.6329
590 1 1.27592 16.8682 44.5919
592 1 5.67954 17.577 45.7461
594 1 10.3379 16.4075 45.526
596 1 14.9311 16.7391 46.1934
598 1 18.9189 16.6536 47.107
685 1 28.2059 18.673 47.8298
604 1 1.50229 20.6958 44.4699
606 1 6.09681 21.4087 45.238
608 1 10.489 21.5818 45.905
610 1 14.1555 21.4123 46.5505
612 1 19.9747 21.1822 46.8088
614 1 25.607 21.4948 45.838
699 1 29.0482 24.1431 47.4582
616 1 31.8402 21.8933 44.539
618 1 0.687269 26.4471 43.8261
620 1 5.31218 26.0487 44.9677
622 1 10.0937 25.7672 45.944
624 1 14.945 25.8398 46.2301
626 1 19.5934 25.8654 46.9795
628 1 25.7056 25.8278 45.4216
2043 1 28.7552 28.1812 47.1349
2039 1 16.6864 27.9791 48.7784
7356 1 32.7676 28.3163 37.5529
427 1 14.3299 5.61541 30.3083
697 1 22.8221 23.7996 48.5674
1969 1 16.9925 28.0458 43.6741
693 1 12.2478 23.6799 49.3728
642 1 26.1332 7.99948 50.2015
644 1 32.7225 8.4084 49.1655
646 1 0.683569 12.5675 50.5111
691 1 7.12834 23.8712 48.6051
649 1 7.69209 10.4376 48.3564
651 1 12.4677 9.35482 49.3003
653 1 16.427 9.99137 49.9611
655 1 22.4116 10.2284 48.4393
656 1 26.4076 12.7184 49.8025
658 1 32.8087 12.9199 48.4749
663 1 7.81129 14.9152 48.0075
665 1 12.2124 14.4098 49.2579
667 1 16.2642 13.8497 49.5111
669 1 22.476 14.787 47.93
672 1 32.8688 17.8008 48.7749
1965 1 8.21183 28.1068 42.3633
1823 1 5.30454 27.7105 29.3626
1831 1 22.7465 28.3107 31.597
421 1 0.919276 5.7137 27.8525
5991 1 32.1489 6.02317 32.6232
563 1 3.80548 5.86678 41.2057
369 1 10.2717 10.6592 23.0218
648 1 5.22152 12.1556 51.8597
636 1 9.5849 8.26502 52.1387
638 1 14.4962 7.06388 52.8606
996 1 1.43063 11.7238 78.2186
781 1 24.8088 5.99076 56.8827
654 1 20.2361 12.1032 51.2183
717 1 2.65936 10.4235 54.2174
719 1 7.11191 10.6141 55.3036
650 1 9.71755 12.0774 51.6827
652 1 14.1903 12.0591 52.8487
723 1 17.6997 10.2762 54.8061
1091 1 33.9467 14.6191 76.0863
725 1 24.0408 10.3118 52.9082
755 1 29.8582 19.1515 52.1356
727 1 29.9189 10.0515 51.7318
731 1 2.45626 14.6681 54.0982
737 1 17.7085 14.9664 53.9352
739 1 24.3397 14.9 53.5859
741 1 30.1971 15.39 51.2609
919 1 21.5189 5.67571 67.2456
747 1 7.3452 19.132 54.5189
668 1 20.4421 16.6808 51.4037
664 1 9.57781 16.6849 52.1335
666 1 13.9819 16.5507 52.4857
751 1 17.6044 19.2317 53.825
1105 1 33.6783 19.3459 75.6583
753 1 24.2115 19.2251 52.9678
954 1 0.830637 22.0791 73.6066
676 1 5.23041 21.7286 51.3716
678 1 9.86691 21.4286 52.4777
680 1 14.1612 21.1614 52.8154
765 1 17.8326 24.0161 54.0058
682 1 20.2269 21.3438 51.4339
767 1 23.6189 23.988 53.0956
754 1 26.8901 21.5351 54.533
756 1 33.6385 21.7524 53.1368
690 1 4.92935 25.9964 51.2219
692 1 9.7975 26.1538 51.6476
694 1 14.4235 25.5947 52.4813
640 1 20.1204 7.95571 51.5715
713 1 30.0665 5.52289 51.6889
768 1 27.4747 26.3166 54.7385
940 1 -0.00593008 16.9393 73.7025
770 1 33.8062 26.5369 53.2306
704 1 4.66925 7.90479 57.5232
706 1 9.14732 7.61684 58.267
744 1 1.02107 21.2394 57.286
708 1 15.3817 7.87491 57.5061
710 1 21.5426 7.53407 55.6614
712 1 27.7569 7.91767 54.4243
718 1 4.83041 12.5845 57.7252
720 1 8.89441 12.2384 58.6197
721 1 11.6325 10.0573 55.3074
722 1 15.3654 12.5087 57.2592
724 1 21.5527 12.9813 55.7896
793 1 18.8304 9.77497 58.6978
795 1 25.2051 10.3994 57.092
726 1 27.9929 12.5204 54.2948
797 1 31.8804 10.2549 55.8752
733 1 6.93397 15.3065 54.9673
732 1 4.59834 17.0906 57.7869
735 1 12.2087 14.6056 56.3478
738 1 21.2668 17.776 55.3006
809 1 25.506 14.6332 57.4693
740 1 27.994 16.411 54.7172
811 1 31.7799 15.165 55.1192
745 1 2.78886 19.2425 54.2702
734 1 9.08474 16.9244 58.8805
749 1 11.752 18.6179 55.7318
736 1 14.8725 17.2297 57.003
823 1 25.2358 19.2131 57.2542
825 1 31.4566 19.6697 55.8029
759 1 3.02665 23.9547 53.956
761 1 7.09119 24.1946 54.8853
746 1 4.98012 21.8698 57.6089
763 1 11.5482 24.4705 55.6759
750 1 15.1374 21.6217 57.0437
752 1 21.2789 21.7135 56.1423
837 1 24.6154 24.0439 57.8692
839 1 31.3982 24.3339 56.4974
760 1 4.57425 26.4134 58.1032
762 1 9.44843 26.3656 58.021
764 1 15.1426 26.3468 56.7319
766 1 21.4326 25.846 55.8617
769 1 30.1281 23.7285 51.9025
773 1 2.62443 5.62369 60.7
778 1 17.0182 7.71543 62.0365
780 1 22.4464 7.58294 60.1429
782 1 28.5673 8.0025 58.4919
787 1 2.33773 9.56811 60.5165
789 1 6.95542 10.0186 61.0855
791 1 12.5791 10.0912 59.9919
792 1 16.5575 11.857 61.4275
794 1 22.2012 12.8492 60.2815
796 1 28.7245 12.6951 58.9836
867 1 32.2407 9.85558 60.5249
801 1 2.19077 14.0509 60.7111
803 1 6.69654 14.8046 61.1586
805 1 12.9615 14.7545 60.5988
807 1 18.3697 14.7727 58.7603
806 1 16.335 17.5665 61.4286
808 1 22.2017 17.2914 59.6673
810 1 29.1374 17.3108 59.3012
881 1 32.4011 14.528 59.7529
815 1 2.21444 18.5915 60.351
817 1 6.4756 19.51 61.5082
819 1 12.5326 19.5838 60.1989
821 1 18.1356 19.3337 58.5103
895 1 32.2219 19.2408 60.5015
829 1 2.0622 23.2657 60.4056
831 1 6.99107 24.1744 61.1649
748 1 9.32659 21.671 58.3711
833 1 12.5763 24.0314 60.2238
820 1 16.5735 21.744 61.5806
835 1 18.7037 24.167 58.5366
822 1 22.0752 21.2004 60.0395
907 1 25.8442 24.0253 61.7049
824 1 28.641 22.0821 58.7843
909 1 32.1087 24.6558 60.8083
1077 1 33.7538 10.0052 75.2824
758 1 0.604149 25.9651 56.7283
714 1 33.7638 7.95 53.5933
834 1 16.6919 26.289 61.075
836 1 22.0411 26.7024 60.792
838 1 29.014 26.569 59.2025
774 1 4.20215 7.84747 64.3785
776 1 9.87893 7.91268 62.8511
850 1 23.4751 8.16833 64.5166
852 1 29.3162 7.93204 62.6428
788 1 4.81297 11.4715 63.8386
859 1 7.46449 10.0496 66.442
790 1 10.0179 12.1086 63.11
861 1 13.7464 9.96195 64.5788
863 1 20.3591 10.7676 63.2272
865 1 25.838 10.4146 61.5867
864 1 23.4005 12.6473 65.0123
866 1 29.7799 12.4036 63.5041
937 1 33.2257 10.415 64.5974
802 1 3.75466 16.9733 64.1409
804 1 10.1687 17.1362 63.102
875 1 14.0785 14.7435 64.4889
877 1 19.984 15.0353 62.526
879 1 26.0649 14.5895 61.7268
880 1 29.6976 17.0853 63.9983
951 1 33.4095 15.1396 64.8371
889 1 13.8962 19.3531 64.6327
891 1 20.3453 19.0971 62.6828
878 1 23.5998 17.4396 64.6026
893 1 25.9259 19.3809 61.4936
1033 1 32.9911 19.1586 64.9021
816 1 4.37374 21.6536 64.3277
818 1 10.4918 21.736 62.713
903 1 13.8881 23.8145 63.7511
905 1 20.4078 23.9585 63.08
892 1 23.6041 22.2085 64.3189
894 1 29.6855 21.7666 63.0566
964 1 33.4027 23.685 65.1545
830 1 4.30848 26.0783 63.4173
832 1 10.1044 26.5437 62.7369
989 1 22.5741 5.94721 72.0144
728 1 33.8885 12.5611 52.6443
906 1 23.5833 26.7459 64.9408
908 1 29.5947 25.9926 63.8261
1038 1 1.70023 25.6323 78.1666
844 1 5.01279 7.86662 68.3863
846 1 11.6062 7.93356 67.3307
848 1 17.5988 8.37234 66.1339
2455 1 11.3345 28.2912 78.7321
968 1 0.668433 26.533 74.1166
1116 1 26.7739 26.1114 77.765
922 1 31.2068 8.27365 67.2434
857 1 1.94885 10.8377 66.7663
858 1 5.24764 12.6405 68.2654
860 1 11.2588 12.5532 67.5724
931 1 14.8949 9.65494 68.66
862 1 17.3944 12.4173 66.0342
933 1 21.3387 10.882 67.5521
935 1 27.3737 10.7125 65.9163
936 1 31.1039 12.6185 68.0015
871 1 1.6083 15.5168 66.8159
873 1 7.61955 14.5117 65.5189
874 1 11.4345 16.5661 67.4348
945 1 15.3724 14.3649 68.441
876 1 17.2832 17.0642 65.4319
947 1 20.8261 15.4641 67.2167
949 1 27.2272 14.5973 66.3336
950 1 31.0825 17.1275 67.614
885 1 1.93335 19.9922 66.6835
887 1 7.95077 19.268 65.8465
872 1 5.42476 17.5027 68.6649
959 1 15.3816 19.1645 68.5605
961 1 21.0949 19.4971 67.218
963 1 27.1803 19.2875 65.843
899 1 1.79181 24.0846 66.7597
901 1 7.88133 24.1572 65.425
886 1 5.82975 22.1146 68.9141
888 1 11.5152 21.4647 67.1904
973 1 15.322 23.8618 68.1449
890 1 17.8778 21.7459 65.1784
975 1 20.8863 24.052 67.4829
977 1 27.2017 24.0392 66.2797
1035 1 30.9256 21.3492 67.856
696 1 20.1423 26.1265 51.3343
900 1 5.57041 26.1494 67.8102
902 1 11.7117 26.2331 66.905
1040 1 7.88866 25.6892 77.3269
904 1 17.2289 26.3837 65.5099
2111 1 23.959 28.036 52.6947
917 1 15.6635 5.79763 68.6425
978 1 30.7851 26.0337 68.1297
1072 1 20.7178 12.468 78.985
914 1 7.01424 7.77312 73.1286
730 1 0.721785 16.5708 56.9786
916 1 12.5647 7.61673 71.0686
918 1 18.8665 8.33545 70.5708
920 1 25.172 7.76662 69.5103
927 1 2.68261 10.2235 71.4678
928 1 6.83472 12.4898 72.4995
929 1 8.76242 10.1399 70.233
930 1 12.7095 12.4181 71.3453
932 1 18.1517 12.6199 70.5634
1003 1 22.2536 10.4177 71.61
934 1 25.0631 12.8028 69.3641
1005 1 28.6804 10.41 70.5749
941 1 3.01457 14.5591 70.8408
943 1 9.09981 14.7476 70.0576
944 1 12.4768 17.9166 71.6386
1017 1 21.7383 15.1254 71.7821
948 1 24.2383 16.6644 69.2838
1019 1 28.1315 14.9601 70.2763
955 1 3.0627 19.2969 71.286
942 1 6.72709 17.0336 72.587
957 1 9.33628 19.2413 69.5556
946 1 18.8712 16.9477 70.3572
1031 1 22.4262 19.7689 72.1505
1020 1 28.4837 19.4571 71.1396
969 1 3.11452 24.0187 71.0093
971 1 8.87608 24.3566 69.5416
958 1 13.1416 21.657 71.1499
960 1 18.847 21.7606 70.3089
1045 1 22.9032 23.7086 71.7019
962 1 25.1917 21.3386 68.6645
1047 1 28.4534 24.0039 70.7271
2173 1 2.23786 27.9631 60.6279
972 1 12.2793 26.3977 70.7753
974 1 18.6558 26.2794 70.1919
662 1 5.04197 16.832 51.0418
976 1 24.8372 26.1252 68.7874
1104 1 31.8994 21.7584 79.011
1048 1 31.3878 25.972 72.2922
2383 1 3.95792 28.463 74.8536
986 1 13.3399 8.27876 75.8151
988 1 20.3025 8.39277 75.1116
990 1 26.5071 7.85098 73.807
992 1 31.6467 8.24458 71.8605
997 1 4.0581 10.0499 75.1056
999 1 10.1646 10.138 74.4814
1000 1 13.6002 12.5012 75.8375
1001 1 16.2976 9.95515 72.9498
1002 1 19.3657 13.0031 75.0742
1004 1 25.2829 12.4498 73.3013
1075 1 29.0119 10.5258 75.0562
1006 1 31.6755 12.9349 72.3737
1011 1 3.26502 14.5682 74.9732
1013 1 10.3378 14.7347 74.4632
1015 1 16.0777 15.1046 72.8908
1016 1 19.7492 17.4224 74.6348
1018 1 25.6242 16.9605 73.6997
1089 1 30.0673 15.1632 75.3132
1022 1 31.9936 16.5967 72.2678
1027 1 9.61312 19.1759 74.4612
1014 1 13.5429 17.2203 75.9016
1029 1 16.2182 19.988 73.1646
1103 1 29.0866 19.6566 75.6046
1039 1 4.30858 23.6615 76.0688
956 1 6.42287 21.6154 72.6688
1041 1 10.0123 23.8848 74.0953
1043 1 16.2549 24.7621 72.8046
1030 1 19.6229 21.9776 74.2025
1032 1 25.988 21.7918 73.9729
1117 1 29.2127 23.5947 75.8681
1034 1 31.8898 21.2862 72.6741
970 1 6.16758 25.8391 72.9577
849 1 20.4964 5.66541 63.2391
1042 1 13.6599 25.5607 75.7578
775 1 6.75785 6.11475 61.7511
1044 1 20.059 26.1267 74.571
1046 1 25.9682 25.959 73.4417
982 1 1.65852 7.63974 78.0865
984 1 7.49051 7.5939 77.0331
1086 1 20.7746 17.9508 79.41
1055 1 11.5687 5.64044 78.771
1060 1 26.866 7.90611 78.3698
2457 1 17.1064 28.6679 77.4303
1062 1 31.1574 8.38752 78.6888
2183 1 31.245 28.3358 56.6407
998 1 7.98831 11.4885 77.0646
1069 1 11.4618 10.3918 78.6413
1071 1 17.2182 9.6315 77.4626
783 1 31.6336 6.20465 55.9727
1073 1 23.4474 10.4939 76.1713
1074 1 27.0843 12.6998 77.7242
1076 1 31.6308 12.3378 78.5385
1010 1 1.73522 16.441 78.1049
1012 1 7.14041 16.1454 77.0168
1083 1 11.3613 14.2057 78.8428
1085 1 17.3459 15.5244 77.4612
1087 1 23.3667 15.0741 76.4018
1025 1 3.85084 19.0733 75.7094
1097 1 11.2113 18.7445 78.5934
1099 1 17.042 20.0528 77.3976
1101 1 23.491 19.717 76.2633
1088 1 26.9785 17.1191 78.1957
1090 1 31.6388 17.0728 78.7326
1118 1 30.9792 26.5089 79.2232
1024 1 1.56127 21.4384 78.3938
1026 1 7.57577 21.3738 77.1533
1111 1 10.7573 23.4551 78.6685
1028 1 13.3531 21.371 75.8575
1113 1 17.3941 24.658 77.3693
2385 1 10.3565 28.0322 74.1434
1115 1 23.1017 23.8326 76.7189
1102 1 26.8196 21.5362 78.524
2247 1 14.1047 28.3495 64.3696
921 1 27.3911 6.17205 65.7086
2461 1 29.2939 28.3912 75.3694
1119 1 33.416 24.0077 76.2753
2389 1 22.086 28.3101 71.8799
987 1 16.3804 5.85971 73.5092
634 1 5.30871 7.4107 51.5352
2175 1 6.54838 28.6537 60.8275
2113 1 30.1375 28.4742 51.4347
2463 1 33.6575 28.3019 75.8863
2109 1 17.902 28.0404 53.669