ITEM: TIMESTEP
316000
ITEM: NUMBER OF ATOMS
16000
ITEM: BOX BOUNDS pp pp pp
3.9905990563990912e-01 1.0180094009436269e+02
5.6756658173630541e+00 9.6524334182632600e+01
-5.1965465001024000e+00 1.0739654650010013e+02
ITEM: ATOMS id type x y z
353 1 5.76724 5.63426 22.8732
10943 1 0.676631 8.46106 6.18024
6 1 15.109 8.46749 -4.51454
8 1 19.5208 8.67766 -3.58556
10 1 24.2037 7.62479 -3.14807
12 1 28.8414 8.17941 -1.99814
14 1 33.1037 7.58841 -1.98692
85 1 3.71326 10.5336 -3.09104
87 1 7.98113 10.4188 -2.37543
217 1 15.5525 5.66364 11.705
20 1 15.2718 13.7005 -4.5364
22 1 19.5223 12.6708 -3.08126
24 1 24.8562 12.2356 -3.48995
26 1 28.873 12.1447 -2.85871
99 1 3.5529 15.2641 -2.85574
101 1 8.03074 15.3633 -2.22106
103 1 12.641 15.0503 -1.96666
34 1 14.8349 17.6987 -3.80324
36 1 19.7069 17.1145 -3.87153
40 1 28.6319 16.5911 -2.11737
28 1 33.5034 12.2253 -1.98018
113 1 3.11403 19.1037 -3.11978
115 1 8.34542 19.8182 -2.94345
38 1 24.3346 17.1776 -2.96953
42 1 32.4532 16.767 -2.12754
127 1 3.74586 23.7257 -3.16689
129 1 8.21304 24.1398 -2.9267
48 1 15.6039 22.0274 -4.22235
50 1 20.341 21.5581 -3.82584
52 1 24.7706 21.3217 -2.49241
54 1 29.0701 21.3703 -2.38349
56 1 33.4037 21.0133 -1.90265
73 1 8.8563 6.30248 -2.68773
32 1 10.8062 17.3656 -5.36684
10904 1 0.930632 17.1321 -0.557787
211 1 2.47672 5.94941 9.81055
62 1 15.0851 26.733 -4.83573
64 1 19.7152 26.3423 -3.3679
66 1 24.12 25.8605 -3.19969
68 1 28.7342 25.5906 -2.85639
70 1 33.2194 25.8822 -2.08934
72 1 5.85232 8.21412 0.250577
10878 1 1.64705 7.52102 0.0353677
346 1 21.7578 26.2614 21.6466
147 1 16.2459 6.12513 4.85018
86 1 5.88109 12.7076 0.310707
88 1 10.1334 12.91 1.0581
89 1 12.7912 10.5139 -1.87973
91 1 16.995 10.4437 -1.42435
93 1 21.4444 9.80734 0.028777
95 1 26.2009 10.0755 0.359198
97 1 31.0093 10.2093 0.963732
75 1 13.1707 5.92319 -2.09604
102 1 10.0167 17.8078 0.864614
104 1 14.2062 17.0714 1.82864
105 1 17.2038 15.1081 -1.28822
107 1 21.4948 13.8179 0.0559193
109 1 26.1945 14.3743 0.194749
111 1 30.491 14.4224 1.5831
100 1 5.73241 17.904 0.158965
117 1 12.1091 19.8154 -1.67854
119 1 17.3591 19.5034 -0.768541
121 1 21.6671 18.4492 -0.715894
123 1 26.4675 18.9155 0.66137
122 1 23.3242 21.0398 2.9614
125 1 31.1795 18.898 1.14456
10917 1 0.935847 21.8317 -0.00771658
114 1 5.613 22.1693 0.413097
116 1 10.0605 21.6508 1.09372
131 1 12.7327 24.0334 -2.16926
118 1 14.6529 21.8038 1.34827
133 1 17.7899 23.9639 -0.866805
135 1 22.0673 23.5865 -0.433897
137 1 26.5861 23.7993 1.1017
139 1 31.355 23.4562 0.672927
289 1 19.8964 5.77819 18.0143
128 1 5.51792 26.3002 0.171391
130 1 9.97635 25.8619 1.08976
5861 1 33.8359 6.5108 20.364
351 1 1.46443 6.12975 21.9897
367 1 5.48017 9.58387 22.6137
1483 1 31.063 28.4306 0.213729
74 1 10.6346 8.51433 0.832878
76 1 15.1241 8.24262 1.53777
78 1 18.9578 7.85413 2.38611
80 1 23.6469 7.71196 3.34403
82 1 28.2486 7.66506 3.60184
84 1 32.8218 7.47541 4.07104
155 1 3.26668 10.9321 3.07554
157 1 7.57313 10.4958 4.02307
159 1 12.1939 10.0948 3.99038
90 1 14.5474 12.9496 1.77905
92 1 18.7066 12.6385 2.41273
94 1 24.0407 12.2724 3.04767
96 1 28.2654 12.376 3.84112
98 1 32.8693 12.6978 4.46671
169 1 2.47005 15.6924 2.61124
171 1 7.71818 15.1026 3.78409
173 1 12.1023 14.6536 4.94456
106 1 19.1612 17.2131 2.91053
108 1 23.8068 16.7754 3.13858
183 1 2.54755 19.7195 2.87237
185 1 7.01288 19.8067 3.98556
187 1 11.3762 19.7298 4.35133
110 1 28.0062 17.0001 3.84465
112 1 32.7589 17.1399 4.58668
197 1 3.19227 24.7747 3.27517
199 1 7.70833 24.4414 4.02919
201 1 12.3303 24.2041 4.84669
203 1 16.8892 24.32 5.15319
120 1 19.3662 21.7816 2.15341
205 1 21.3785 23.9356 6.002
124 1 28.662 21.6854 3.74248
126 1 33.2607 21.1448 4.43478
132 1 14.5538 25.7612 1.21572
134 1 19.4656 26.2603 2.10204
136 1 23.9337 26.3204 2.8325
138 1 29.4899 25.4363 3.80974
140 1 33.1682 25.8931 3.83573
142 1 5.02723 8.18981 6.24544
144 1 9.36923 8.3824 7.54808
146 1 14.1099 8.03777 8.18512
143 1 7.96902 5.74047 3.67299
10891 1 0.937918 12.3631 0.00228233
156 1 4.91889 12.7526 6.65121
158 1 9.36732 12.7355 7.22334
160 1 14.0537 12.7726 7.41985
161 1 16.5966 10.0724 4.80431
163 1 21.2274 10.1924 5.60759
165 1 25.7272 10.133 6.9388
167 1 30.1298 10.0264 7.20449
10995 1 0.663308 26.439 6.13881
175 1 16.6313 14.655 5.18575
176 1 18.5073 17.0374 8.85287
177 1 21.1302 14.4644 6.24122
179 1 25.4766 14.5035 6.73042
181 1 30.0735 14.7847 7.6078
348 1 25.9699 26.9002 23.0944
170 1 4.60537 17.5951 6.4021
172 1 9.26143 17.5756 7.46667
174 1 14.6874 17.4271 7.66517
189 1 16.3426 19.4102 4.67386
191 1 20.9687 19.1198 5.93628
193 1 25.0477 19.072 6.64499
195 1 29.948 18.8839 6.89585
306 1 26.0889 12.6601 22.7163
184 1 4.71651 21.7577 6.43907
186 1 9.04086 22.2833 7.36527
188 1 13.8715 21.6163 7.65138
190 1 18.43 21.5324 8.37636
207 1 25.3633 24.0679 5.63838
209 1 30.2008 23.3215 7.21226
198 1 5.30006 26.6741 6.6454
200 1 9.55562 26.1796 7.83105
202 1 14.0215 26.2933 8.40965
344 1 17.4608 25.7517 20.779
41 1 31.3307 14.3845 -5.21733
5848 1 34.101 23.1194 14.6684
342 1 12.7359 26.2934 21.4319
5809 1 33.6895 10.143 14.0544
148 1 17.9203 7.98343 8.78948
150 1 23.0253 8.26698 9.31996
152 1 27.3538 7.40101 9.55426
154 1 32.2779 8.18336 10.7521
225 1 2.24573 10.4806 9.1062
227 1 7.02994 10.1642 10.1167
229 1 11.5353 10.8376 10.6785
162 1 18.0531 12.5217 9.16932
231 1 15.4762 10.9601 11.3744
233 1 20.1188 10.6132 12.0923
164 1 22.7014 12.459 9.50149
166 1 27.7581 12.4205 10.4478
168 1 32.2132 12.7253 10.2914
239 1 2.26271 14.9862 8.88502
241 1 6.7041 14.9515 10.3252
243 1 11.4952 15.3351 10.4974
245 1 15.7373 15.3935 12.0749
182 1 32.0044 17.3719 10.7995
253 1 2.05736 19.8107 9.49907
255 1 6.78972 19.735 9.77843
257 1 11.4844 19.9768 10.7493
259 1 15.9947 19.9692 11.4326
261 1 20.6641 19.7834 11.8772
178 1 22.7701 17.2774 9.81002
180 1 27.6442 17.0589 9.87404
267 1 2.52453 24.2588 9.65222
269 1 6.92316 24.1969 10.3523
271 1 11.1874 24.5781 11.1128
273 1 15.8803 23.9106 11.2347
275 1 20.2628 23.7469 11.5007
192 1 23.0084 21.8296 9.04186
194 1 26.6929 21.4689 9.44092
196 1 31.8294 21.5527 10.2068
204 1 17.9611 26.0658 8.20665
206 1 23.3653 25.7952 8.85342
208 1 27.2027 25.968 9.79349
210 1 32.4362 26.0001 10.1849
212 1 3.76641 8.03242 12.7253
214 1 8.45251 8.19909 13.1777
216 1 13.056 8.44468 14.5648
218 1 17.7465 8.21153 14.7342
220 1 22.8164 8.11583 15.0901
221 1 25.0517 5.67141 13.2052
222 1 27.0236 8.16262 16.4103
340 1 8.29567 26.4363 19.835
295 1 1.77979 10.8921 15.7683
226 1 4.33273 12.6751 12.5569
228 1 8.48204 12.8436 13.6629
230 1 13.2186 12.7437 14.0726
232 1 17.4263 12.9005 15.3931
234 1 22.0735 12.896 15.7455
235 1 24.785 10.567 12.776
237 1 29.3171 10.8156 13.457
240 1 4.72773 17.3801 12.2155
247 1 20.213 15.195 12.5145
249 1 25.4067 14.4454 13.185
251 1 29.714 14.8013 13.3121
283 1 6.25924 6.77315 16.0962
145 1 12.3229 5.72576 4.25551
242 1 8.67347 17.497 13.4527
244 1 13.214 17.5166 14.2058
246 1 18.0584 17.2305 14.9069
263 1 25.0312 19.2165 12.3654
248 1 22.6453 17.4587 15.2912
250 1 27.2761 16.9436 15.9898
265 1 28.6994 19.6023 13.2724
151 1 25.5735 5.49953 6.1791
337 1 1.73244 23.8941 15.6628
254 1 4.37696 21.3476 12.663
256 1 8.8962 21.3665 13.6303
258 1 13.3182 21.3258 14.2877
260 1 18.1594 21.7538 15.4313
277 1 25.3213 23.9313 12.5254
279 1 29.7904 23.3644 13.2827
268 1 4.25153 26.5129 13.4332
270 1 8.53771 26.1864 13.3403
272 1 13.2847 25.8736 14.0566
274 1 17.8381 26.3449 14.8118
276 1 21.8362 26.0265 15.0103
1621 1 24.8725 27.6 12.9493
287 1 15.1928 6.0505 17.9939
281 1 1.81068 6.32325 15.5291
293 1 28.2494 5.90733 19.647
349 1 28.6133 23.797 20.3725
10930 1 0.896623 26.3294 -0.350923
1553 1 30.2983 28.1126 6.88743
10969 1 0.440513 17.1347 5.90661
224 1 31.0798 7.64016 16.4351
296 1 3.84088 12.8503 19.6717
297 1 6.35669 10.6273 16.1539
299 1 10.6223 10.8494 16.8615
301 1 15.3262 10.7266 17.8063
303 1 20.0336 10.0457 18.321
305 1 23.8431 10.3054 19.1269
236 1 26.6892 12.7193 16.4452
238 1 31.8552 12.0665 16.9799
309 1 2.12217 15.6533 15.5461
311 1 6.56944 15.2043 16.8271
313 1 11.1494 14.8578 17.7022
315 1 15.1028 14.8666 17.6971
317 1 19.8583 14.9421 18.4295
319 1 24.3609 14.7073 18.7876
323 1 1.71606 19.4593 15.1394
310 1 3.84396 17.3426 18.8291
325 1 5.8304 18.9414 16.1877
327 1 11.2874 19.4663 17.1791
329 1 15.6523 19.3627 18.2627
331 1 20.8066 19.2903 18.2014
333 1 24.3828 19.3218 19.0415
252 1 31.6704 16.898 17.0993
339 1 6.26382 24.1152 16.5731
341 1 10.9603 23.4861 16.3131
343 1 15.1563 23.6392 17.409
262 1 23.0557 22.0774 15.4792
345 1 19.9061 24.142 17.9238
347 1 24.4674 23.9168 19.516
264 1 26.9768 21.7935 16.3818
266 1 31.4434 21.3581 18.1382
338 1 3.60363 26.5852 19.1931
334 1 26.926 21.228 22.5954
332 1 22.047 21.0581 22.2384
278 1 27.1598 26.5587 16.3822
280 1 30.7436 25.6602 17.3381
282 1 3.5016 8.41325 18.4507
284 1 7.94893 8.47953 19.8413
286 1 12.6309 8.12095 20.1918
288 1 16.9347 7.83031 21.0976
290 1 21.6401 7.86569 21.5455
292 1 26.0264 8.17531 22.1438
1685 1 10.67 28.1251 16.9535
365 1 1.12063 10.1117 22.5415
298 1 8.11698 12.3099 20.2192
300 1 12.3175 12.7019 20.8284
302 1 17.1875 12.4799 21.0043
304 1 21.9242 12.4079 21.6754
1623 1 29.6681 28.0619 13.393
307 1 28.7734 10.1328 20.0711
1549 1 21.1819 28.6974 5.91619
5874 1 33.548 10.9482 20.361
379 1 1.50355 14.9678 22.0359
285 1 10.8262 5.97211 16.5755
321 1 28.9654 14.8327 19.6438
320 1 26.4256 16.7507 22.5376
5887 1 33.8401 14.7614 20.3292
393 1 1.09004 19.7927 21.7479
395 1 5.70887 19.285 22.4472
312 1 8.40938 17.8453 19.8672
314 1 13.1507 17.1549 20.1021
316 1 18.1225 17.1051 21.4755
318 1 21.8405 17.0419 22.0441
335 1 28.6759 19.2282 19.467
5900 1 33.2541 19.1472 20.7844
1693 1 28.7959 28.3847 19.4896
324 1 3.77046 21.898 19.1009
407 1 1.17535 24.3995 22.2218
409 1 6.09519 24.0998 22.3734
326 1 8.40952 22.4717 19.7475
328 1 13.0716 21.8896 20.1699
330 1 17.7768 21.2654 21.053
215 1 11.0595 6.55084 10.6245
1481 1 25.8492 28.4651 0.0626304
7161 1 33.4594 28.1906 19.8433
7096 1 33.3927 28.0565 14.3822
1479 1 21.4139 28.377 -0.343173
322 1 30.6214 17.5438 23.2453
5835 1 33.0383 19.315 14.1519
1687 1 15.1367 28.3349 18.1282
141 1 3.13254 5.74882 3.22076
381 1 6.23612 15.3482 22.4693
352 1 2.56908 8.44696 25.8307
354 1 8.15754 7.68332 26.0876
383 1 10.3083 15.2957 23.215
6147 1 33.8182 15.0715 41.2124
637 1 12.1912 6.39067 48.6161
533 1 0.907025 19.8172 34.3574
2033 1 3.90403 28.4723 47.683
369 1 10.1543 10.0804 23.5414
366 1 3.2964 12.1722 25.4708
643 1 29.2441 6.28334 47.4836
368 1 7.70871 12.1767 25.5305
503 1 27.5133 6.33021 39.0393
371 1 14.7569 10.0788 24.1267
373 1 19.1557 10.0077 24.7264
375 1 23.5066 9.77947 25.3193
377 1 28.3223 9.91365 25.8992
5939 1 32.733 10.3657 26.5802
397 1 9.93802 19.0986 23.5787
382 1 7.86647 16.7224 25.8044
385 1 14.7965 14.7846 24.1654
387 1 19.189 14.1738 24.9183
389 1 23.7076 14.5023 25.4674
391 1 28.2846 14.7846 26.0156
380 1 3.1494 16.9689 25.1729
1973 1 27.8587 28.3196 42.5225
399 1 14.4654 19.3468 23.779
401 1 19.011 19.4063 25.2071
403 1 24.0422 19.3744 25.5433
405 1 28.6548 19.6592 25.7883
5965 1 32.6074 19.2733 26.7864
394 1 3.22763 21.6734 25.4799
396 1 7.85638 21.7616 25.9196
411 1 10.5736 23.8412 23.5301
413 1 14.9624 23.6142 24.2789
415 1 19.3118 23.9727 24.685
417 1 24.0587 24.0081 25.0853
419 1 28.2584 23.6388 25.6998
5978 1 33.2941 24.6511 27.0331
408 1 3.56294 26.1909 25.1641
410 1 7.64637 26.6518 25.8999
294 1 30.6497 8.42972 23.0658
700 1 32.4124 26.3639 48.9122
662 1 5.76283 17.472 50.8098
356 1 12.6819 7.42717 26.5395
358 1 16.4119 7.99696 27.8485
360 1 21.2802 8.26967 27.8142
362 1 26.1262 7.74717 28.2545
364 1 30.9645 8.32069 29.2434
567 1 12.6024 6.38149 42.4641
435 1 1.03013 11.229 28.6262
437 1 5.5659 10.0593 29.0952
439 1 10.1371 9.85347 29.6389
370 1 12.0508 12.1161 26.5259
372 1 16.617 12.8515 27.2863
374 1 20.5315 12.3251 27.8722
378 1 29.9526 12.3945 29.5557
648 1 5.2539 12.4942 50.9062
451 1 4.9655 14.6761 28.5138
453 1 9.51435 14.4226 29.7825
455 1 14.1345 14.4129 30.0114
386 1 16.7513 16.6922 26.923
376 1 26.0311 12.4749 28.1096
5952 1 33.0755 15.1306 26.2599
336 1 31.3979 21.9341 23.8933
465 1 5.404 19.5515 28.3387
467 1 9.71228 18.8668 29.5911
384 1 12.0859 16.8562 26.9481
388 1 21.1025 16.8571 28.397
390 1 25.5624 17.2094 28.6938
392 1 30.1412 16.9904 29.4411
1831 1 23.7809 27.554 31.3473
479 1 5.23488 24.3023 28.8318
481 1 9.86063 24.3135 29.2473
398 1 12.3575 21.2088 27.1252
400 1 16.8994 21.3079 28.0628
402 1 21.617 21.1655 27.3653
404 1 26.0557 21.7598 28.9659
406 1 30.653 21.8248 29.3783
412 1 12.1894 26.3343 26.7808
414 1 16.6326 25.9348 27.2045
416 1 21.3588 26.4408 27.9475
418 1 25.9184 26.2633 27.7746
420 1 30.4166 26.3883 29.2109
698 1 26.5686 25.5097 50.8756
422 1 2.70246 7.76651 31.4011
424 1 7.08598 7.84175 32.2111
426 1 11.9156 7.54212 32.3867
477 1 0.763418 23.8671 27.8578
436 1 2.87346 12.3468 32.1119
438 1 7.16155 12.5403 32.3499
441 1 14.145 10.0111 29.9717
440 1 11.981 12.1092 33.1469
443 1 18.6976 10.6569 30.7698
442 1 16.2409 12.4827 34.3252
445 1 23.3039 10.8509 31.2615
447 1 27.157 10.1098 31.5944
6004 1 32.2939 10.4117 33.0713
457 1 18.732 15.094 30.8014
459 1 23.5249 14.7812 31.265
461 1 27.5594 14.7458 31.5663
6017 1 32.4996 14.7205 32.6614
450 1 2.65375 17.1784 31.5026
452 1 7.14317 17.0782 31.9212
454 1 11.9625 16.7803 33.028
469 1 14.3105 18.9431 30.3464
471 1 19.0306 19.8552 30.779
473 1 23.692 19.3642 31.2755
475 1 28.1128 19.3434 32.3579
6030 1 32.0191 19.35 33.0097
464 1 2.64274 21.6176 31.6011
466 1 7.20532 21.784 32.0661
468 1 12.2226 21.4232 32.5986
483 1 13.9689 23.9984 30.5073
485 1 18.5962 24.3413 31.1629
487 1 22.9292 23.7493 30.1773
489 1 27.7642 23.8273 32.1471
6043 1 32.4967 23.9487 32.5699
478 1 2.58524 26.3098 31.4418
480 1 7.05151 26.6153 32.3838
482 1 11.7846 26.1147 33.0951
463 1 0.667032 19.4699 27.8611
690 1 5.59455 26.226 50.419
2039 1 17.1267 28.0139 49.8998
2037 1 11.9983 27.955 49.2465
1759 1 19.1953 28.2267 24.1291
350 1 31.6078 25.8148 23.4629
428 1 16.2358 8.62006 33.8326
430 1 20.8156 8.11994 33.9068
432 1 25.4314 7.96273 35.3212
434 1 29.516 8.66703 35.3084
695 1 17.0783 23.3667 49.8546
507 1 4.22039 9.72065 34.8338
509 1 8.72585 9.89231 35.4244
511 1 13.2065 9.94638 36.6797
513 1 17.9951 10.2873 37.0692
444 1 20.7763 12.9204 34.3549
446 1 25.5324 12.7939 35.1029
448 1 30.1473 13.191 35.371
521 1 4.93291 14.6009 35.0039
523 1 8.91775 15.0762 35.6362
525 1 13.7314 15.0318 36.7567
527 1 18.518 15.1006 37.1969
462 1 29.5698 17.0119 35.298
6082 1 33.5801 15.3131 37.3014
355 1 10.2779 6.15221 23.1203
535 1 5.42537 19.3006 34.7431
537 1 9.38506 19.9958 35.4334
456 1 16.591 17.0654 33.8116
458 1 20.2965 17.8808 33.9851
460 1 24.9957 17.2832 34.3763
549 1 5.33127 23.9952 34.5415
551 1 9.64809 24.1575 35.3655
553 1 13.8491 23.6911 36.2693
470 1 16.7905 21.914 33.7797
472 1 21.2542 21.581 34.3053
474 1 25.8781 21.5913 34.5447
476 1 30.462 21.9772 35.4348
484 1 15.841 26.6086 33.3193
486 1 20.43 26.1912 34.1115
488 1 25.0414 26.2342 34.8696
490 1 30.0057 25.9148 35.5647
492 1 2.09738 7.99878 37.6334
494 1 6.1177 7.82819 37.7854
496 1 10.6581 8.86887 39.2909
498 1 15.3815 8.0758 39.6091
433 1 28.0089 6.11774 31.7971
500 1 20.4325 7.81631 40.2185
501 1 23.0833 5.95903 37.603
504 1 31.0157 8.16241 39.8931
506 1 2.22992 12.6426 37.9459
508 1 6.56697 12.5813 38.7376
510 1 11.2768 12.8117 38.7457
512 1 15.3571 12.8945 39.6132
514 1 19.9405 12.6265 40.3482
515 1 22.6704 10.0491 37.5855
517 1 27.3328 10.5229 38.0677
6069 1 33.3189 10.5775 37.512
518 1 30.6382 12.7635 40.0109
522 1 7.20165 17.0552 38.1511
524 1 10.8876 17.3239 39.2756
526 1 15.5903 17.3297 39.8193
529 1 23.1344 14.843 37.7815
531 1 27.3687 14.7364 37.835
532 1 30.8398 17.0445 39.7028
520 1 2.57758 16.9979 37.593
539 1 13.5665 19.7326 36.2584
541 1 17.835 19.6444 37.4092
543 1 22.5774 19.8551 37.591
545 1 27.3917 19.354 37.5556
6095 1 33.5271 19.9526 37.2955
534 1 3.14302 21.7365 38.0603
536 1 6.98069 21.82 38.3889
538 1 11.6297 22.1429 39.4194
555 1 18.5643 24.1235 36.8161
540 1 16.07 21.9251 40.0419
557 1 23.0332 24.0239 37.3729
559 1 27.454 24.0437 38.2834
6108 1 33.6714 24.7143 37.4744
546 1 30.5597 21.9067 39.9095
548 1 2.16757 26.2388 37.383
550 1 6.76767 26.0737 38.3213
552 1 10.9148 26.1038 38.845
554 1 15.6013 26.7029 39.4791
556 1 20.3129 26.5573 40.47
693 1 12.5066 23.9161 49.2002
560 1 30.6169 26.9113 40.1264
5926 1 32.6268 5.94445 26.5002
1969 1 17.2789 28.1864 43.5517
308 1 30.7619 12.9044 23.353
502 1 24.3033 8.0772 41.1191
573 1 28.0748 6.08158 43.3646
577 1 4.4324 10.1888 41.4628
579 1 8.632 11.2079 42.1045
581 1 13.242 10.4222 42.2
583 1 17.4757 10.5686 43.0381
516 1 24.529 12.7801 40.8397
587 1 28.0234 9.92027 42.8078
563 1 3.61782 5.43661 41.2543
591 1 4.33776 14.9659 41.4034
590 1 1.62177 17.2125 43.6915
593 1 8.55168 15.3978 41.5809
595 1 13.0415 14.9632 42.7086
597 1 17.9358 15.2818 43.2388
599 1 22.1401 14.6852 44.0918
601 1 27.8192 14.4022 42.0749
605 1 4.28437 19.7055 41.0734
607 1 8.71526 19.3342 41.8403
609 1 13.4832 18.9686 42.5555
611 1 17.4747 19.4848 43.7004
528 1 20.1226 17.2388 40.7843
530 1 24.8321 17.1953 41.0241
615 1 28.195 18.9443 42.8353
619 1 4.06706 24.1739 41.2673
621 1 8.63704 24.0167 42.2552
623 1 13.0869 24.378 42.6738
625 1 17.3371 24.228 43.1426
542 1 20.1693 21.8908 40.5711
544 1 24.655 21.2314 40.8043
629 1 28.1362 23.6954 42.9338
639 1 16.6377 5.48896 49.6032
558 1 24.6192 26.2107 40.9478
684 1 26.3595 21.7165 50.3442
562 1 1.30707 8.17179 44.2967
564 1 5.77999 8.06207 44.3395
566 1 10.1182 8.05146 45.1192
568 1 14.5286 7.99695 46.1491
691 1 8.28828 23.7426 48.1983
570 1 19.1806 8.1681 46.4815
572 1 25.0522 7.7341 45.7979
574 1 31.6822 7.78146 44.7268
576 1 1.17885 12.8289 43.7935
647 1 2.95774 10.4396 47.1852
578 1 6.25594 12.7722 44.9967
580 1 10.7336 12.1335 45.0736
582 1 15.3957 12.5219 45.8424
585 1 22.1591 10.298 43.5451
584 1 19.3403 12.6641 46.6121
586 1 25.418 12.8892 45.5743
588 1 31.5369 12.4909 44.0433
661 1 3.67944 14.958 47.3016
592 1 6.61911 16.9305 44.4859
594 1 10.5047 16.8932 45.2129
596 1 15.0424 17.3707 46.3144
671 1 28.8183 14.7065 47.1409
613 1 22.1773 19.4802 44.0251
598 1 19.5565 16.7842 46.7154
600 1 25.9078 16.8323 45.5449
685 1 29.3018 19.3754 47.2731
602 1 31.5153 16.7953 43.8015
604 1 1.57377 21.5961 44.4561
606 1 6.34707 21.6698 44.4191
608 1 10.8859 21.7063 45.3238
610 1 15.0073 21.6576 46.0845
627 1 21.7885 23.8526 43.7836
612 1 19.6725 21.6074 46.143
614 1 25.4483 21.519 45.5703
699 1 29.0508 23.5903 47.4807
616 1 31.765 21.2023 44.3597
618 1 1.69078 26.175 44.0921
620 1 6.33514 25.9977 44.5886
622 1 10.1356 26.0602 45.1056
624 1 15.4479 26.0887 46.6995
626 1 19.3846 26.0168 47.1383
628 1 25.7174 26.1362 45.5146
630 1 31.6119 26.0086 44.5871
632 1 1.12281 8.15391 50.6791
641 1 23.0918 5.60149 48.4843
674 1 0.430499 21.5129 50.2182
651 1 12.0281 10.3218 48.4462
686 1 32.5081 20.8167 48.7889
688 1 1.39615 25.9772 49.8307
642 1 26.5623 7.81337 50.1407
644 1 32.6572 7.61734 49.3421
646 1 1.54786 12.7759 50.0991
649 1 7.39138 9.85993 48.3037
653 1 17.0511 9.90409 49.3101
655 1 22.8757 10.0718 48.0745
656 1 26.6492 12.4979 49.5671
657 1 29.1573 9.90457 47.1373
658 1 32.255 12.3578 49.458
663 1 8.01967 14.5492 48.243
665 1 12.7543 14.4169 48.6839
667 1 16.6231 14.5962 49.8107
669 1 22.9526 14.6049 48.6547
697 1 22.9278 24.1138 48.223
675 1 3.5231 19.6542 47.3444
660 1 0.962356 17.1996 50.3689
677 1 8.01348 19.3066 48.2561
357 1 14.8841 6.00756 23.8449
679 1 12.3576 19.1194 48.8589
681 1 16.9034 19.3308 49.7652
683 1 23.4472 19.0446 47.8828
670 1 26.2532 17.1032 50.1055
672 1 32.7062 16.4211 48.7425
689 1 3.69409 23.7337 47.5165
2035 1 8.3734 27.7621 48.1797
499 1 18.3109 5.87965 37.2141
633 1 3.68174 5.9696 48.1344
429 1 18.7866 5.42011 31.0113
569 1 17.3055 5.89578 43.0655
2041 1 23.3403 28.3183 48.5945
1763 1 28.7492 28.2183 25.3875
423 1 5.08338 6.02377 29.0464
497 1 13.8313 6.1703 35.8656
431 1 22.6833 6.38663 31.1654
727 1 29.7766 10.0601 51.15
954 1 0.635515 21.1967 73.7448
1055 1 10.7824 5.9571 78.8071
636 1 10.373 8.44935 51.5493
638 1 14.2537 7.79847 52.2282
640 1 20.2512 7.54769 50.9016
711 1 23.7235 6.04489 53.244
712 1 28.2775 7.24138 54.0036
714 1 34.088 7.70295 53.9393
919 1 21.0651 6.29556 67.5215
717 1 2.60139 10.6601 53.5741
868 1 34.2781 12.2638 61.6461
650 1 9.81251 12.2807 51.5346
652 1 14.1234 12.5631 52.0762
723 1 17.1134 9.88118 54.0667
654 1 19.9455 12.2552 51.2309
725 1 23.7055 10.037 52.6551
777 1 13.0702 5.78939 59.9218
1062 1 31.4843 7.5132 78.7872
731 1 2.9855 15.2505 53.6091
733 1 7.51281 14.2451 55.0234
664 1 9.56086 17.0109 51.9706
737 1 17.6126 14.9895 54.3996
739 1 23.7758 14.5524 52.8554
740 1 27.0769 17.1882 54.3251
745 1 2.79474 19.7102 53.7241
747 1 7.15359 19.0559 54.3078
666 1 13.8872 17.2478 52.217
751 1 17.4334 19.0633 54.4959
668 1 20.2376 16.6396 51.3309
753 1 24.0402 19.2039 52.4925
770 1 33.8055 25.9292 53.0324
755 1 30.1076 19.0146 51.7564
759 1 3.55308 23.8027 53.8165
761 1 7.33489 23.6944 54.8219
678 1 9.77448 21.4188 52.038
680 1 14.4697 21.008 52.2678
763 1 12.0906 23.6225 55.3605
765 1 18.3723 24.0836 54.4985
682 1 20.7218 21.422 51.4993
767 1 24.2928 23.615 53.262
696 1 21.1008 25.6959 51.2784
769 1 30.1997 23.5744 52.1528
692 1 9.65597 25.9475 52.2953
694 1 14.6805 26.5701 52.6944
742 1 33.902 16.791 53.097
937 1 33.6723 10.1147 65.172
1038 1 1.78319 25.9829 78.0143
768 1 27.6631 26.2336 55.0128
704 1 4.66335 8.24057 56.7973
708 1 15.4554 7.43495 56.9454
710 1 21.2549 8.61704 55.5131
781 1 24.5603 6.05441 57.9259
968 1 0.761725 25.8627 73.4984
719 1 7.15409 10.1955 54.4426
718 1 4.77522 12.8501 57.2651
721 1 12.3576 10.3413 55.003
722 1 14.965 12.6984 56.7001
724 1 21.6146 12.7825 55.4786
795 1 25.4328 10.3089 56.7758
726 1 27.5526 12.6082 54.0599
797 1 29.8914 10.1485 55.644
735 1 11.6071 14.9222 55.4793
809 1 25.57 14.4918 57.1148
811 1 30.8296 14.8039 56.0364
1072 1 20.8627 11.888 79.0495
732 1 5.00009 16.8765 56.7809
734 1 9.2457 17.6298 58.4217
749 1 11.279 19.2368 55.8052
736 1 14.7099 17.0212 56.6644
738 1 21.0561 17.5349 55.3209
823 1 25.2855 19.4647 57.1823
825 1 30.602 19.5771 56.3278
912 1 0.758206 7.5175 73.9354
746 1 4.69235 21.8842 57.3672
748 1 9.2255 22.3013 58.8681
750 1 15.3071 21.7065 56.6996
752 1 22.0047 21.6948 56.034
837 1 25.3235 24.1963 57.7753
754 1 28.0278 21.5968 54.9213
839 1 31.3444 23.7497 56.5073
760 1 4.80375 25.9204 57.8478
764 1 16.1447 25.933 57.1006
766 1 21.6982 26.3108 56.2756
915 1 8.85032 5.67008 69.8191
2323 1 32.9265 27.963 64.9762
1104 1 30.7025 21.1147 78.9032
706 1 9.52224 7.91883 57.9864
1119 1 33.8316 23.6862 76.3296
778 1 16.4446 8.25835 61.8065
779 1 18.6676 6.30691 58.7365
780 1 22.5904 8.8483 59.7345
782 1 28.4068 8.09443 58.5949
634 1 5.5671 8.03416 51.3779
787 1 2.42385 10.467 59.5689
789 1 6.65245 10.5979 60.273
720 1 9.428 12.2364 57.8389
791 1 13.0757 10.4341 59.4611
792 1 16.5254 12.8392 61.1254
793 1 18.1339 10.6649 57.9208
794 1 21.841 13.2603 59.3003
796 1 28.4147 12.1499 58.8485
867 1 31.7992 9.24705 59.6928
801 1 2.07743 15.113 60.0024
803 1 7.14826 15.1727 60.5275
805 1 12.9091 14.9101 59.2687
807 1 18.8513 15.2867 58.1591
808 1 22.6414 17.001 59.9725
810 1 28.5873 16.862 58.8187
881 1 31.6548 14.9483 60.2031
815 1 2.25802 19.4165 59.6832
817 1 7.61483 19.1051 61.5624
819 1 12.9002 19.6921 60.1051
806 1 16.6431 17.5681 60.9249
821 1 19.1054 19.7112 58.0794
893 1 26.1523 19.4697 61.8339
895 1 31.9984 19.3757 60.6559
829 1 1.74706 24.0591 60.1979
831 1 6.34699 24.1601 61.0729
833 1 13.1933 24.3946 59.798
820 1 16.4668 21.5245 61.6313
835 1 19.1039 23.4373 58.874
822 1 22.8186 21.6862 60.5663
907 1 26.1295 23.8985 62.1751
824 1 29.0684 21.8941 59.1431
909 1 32.6665 23.9208 60.9949
762 1 9.3169 26.3663 57.9041
834 1 16.7945 26.4035 61.7926
923 1 33.1378 5.80022 65.3211
836 1 22.4603 26.398 60.28
838 1 28.5823 25.6735 59.7417
774 1 3.95725 8.69691 63.6164
776 1 10.1294 8.33998 62.6043
861 1 14.0807 10.3709 64.3708
850 1 23.7671 7.53797 63.8847
1063 1 34.0344 5.83823 75.4767
852 1 29.8282 7.52966 63.9638
788 1 4.37855 12.9169 62.8993
790 1 10.2454 12.3248 62.5593
863 1 20.1701 10.1312 62.4722
865 1 26.275 10.3647 62.31
864 1 23.4552 12.5563 64.1914
866 1 30.2508 11.8072 63.0557
804 1 10.6697 16.5243 62.6657
875 1 13.9315 14.9009 64.3134
877 1 20.193 15.2618 62.6451
879 1 25.7555 15.1127 61.4003
878 1 23.1282 17.0007 64.6261
880 1 29.7671 16.5082 63.2422
951 1 32.9189 15.1404 65.2166
802 1 4.23632 17.4465 63.3952
887 1 8.14408 19.1701 65.5893
889 1 14.026 19.502 64.0794
891 1 19.9464 19.9694 62.8272
816 1 4.65254 21.9328 63.7814
818 1 11.0868 21.8699 63.0623
903 1 15.0514 23.9452 64.3712
905 1 19.8525 24.4064 63.1552
892 1 23.3795 21.6682 65.0805
894 1 29.6671 21.8167 63.8241
964 1 33.5926 24.1141 65.6098
830 1 4.21173 25.9657 63.9232
832 1 10.3243 26.2707 62.2618
703 1 2.92683 5.81169 53.2101
1059 1 23.0067 5.79355 76.5725
1102 1 26.8701 21.7298 78.642
906 1 23.4604 26.4406 65.0477
908 1 29.5554 25.9188 64.2974
846 1 11.0651 7.96074 67.3788
848 1 17.0683 7.91447 66.5144
849 1 19.5128 5.80971 62.9322
922 1 30.919 8.41741 68.5167
857 1 1.92075 10.5835 66.0311
858 1 4.69987 12.7786 67.5088
859 1 7.71302 10.5107 64.917
860 1 10.9905 12.52 67.2705
862 1 17.7158 12.5796 65.7635
933 1 21.151 10.3094 66.824
935 1 27.1097 9.98485 66.1568
2391 1 28.7035 28.5413 71.2167
936 1 31.1545 12.9102 67.6025
871 1 1.90288 15.1109 66.3031
872 1 4.68103 17.3714 68.2893
873 1 7.71489 15.3202 65.3133
874 1 11.6501 16.722 67.5067
876 1 17.6621 17.2516 65.5793
947 1 20.5245 14.9856 67.1726
949 1 26.9388 14.6818 66.0698
950 1 30.4471 16.9005 68.0375
885 1 1.68973 19.9812 65.9316
961 1 21.1552 19.3563 68.1711
963 1 27.0097 19.4878 66.5591
1033 1 33.5413 19.3008 65.1031
899 1 1.8344 23.9732 66.8057
886 1 5.25979 21.3809 68.4146
901 1 7.56078 23.3903 65.7081
888 1 11.3681 21.811 67.4551
973 1 14.7663 24.65 69.0806
890 1 17.6062 21.9173 66.2943
975 1 21.7698 23.5014 68.2151
977 1 27.3256 23.9327 66.4553
1035 1 30.9523 21.4336 68.241
900 1 5.79597 26.3264 68.1246
902 1 11.3166 25.6134 66.1528
1091 1 34.0408 14.3955 75.8222
904 1 18.1648 26.5691 66.2088
1116 1 26.977 26.246 78.5983
6537 1 33.6841 18.7338 68.9272
978 1 31.0225 26.133 68.1641
844 1 5.3313 8.41096 68.1333
707 1 12.4888 5.9273 54.9957
916 1 12.1145 8.36478 71.7929
918 1 19.0455 7.95605 70.4497
728 1 33.4764 12.3833 53.6358
920 1 24.65 8.28803 69.1759
1058 1 20.8932 8.19282 78.8915
927 1 2.51447 9.85821 70.4593
929 1 8.7618 10.1622 70.4238
931 1 14.7285 10.4464 68.5166
930 1 12.5952 12.7625 71.2753
932 1 18.5557 12.4796 70.5319
1003 1 22.0786 10.3028 71.2034
934 1 24.3725 12.9543 68.7218
1005 1 28.1299 10.5157 70.3048
1006 1 32.1515 12.1915 72.2252
941 1 2.05698 14.4046 70.7335
943 1 8.03765 14.9156 69.8068
945 1 14.784 14.8395 68.4584
944 1 12.3993 17.1734 71.6021
946 1 18.4226 17.0185 70.1473
1019 1 28.2609 14.4393 70.7573
955 1 2.99291 19.2541 71.1794
957 1 9.04489 19.0803 70.0631
959 1 14.8051 18.7204 68.6891
1031 1 22.137 19.3862 72.286
948 1 24.4161 16.5962 69.1847
1020 1 28.2299 18.9069 70.8644
2183 1 31.7461 28.2657 55.8839
969 1 3.09439 23.9965 71.0798
971 1 9.3145 23.6492 70.0236
958 1 12.6492 21.7924 71.4861
960 1 18.0334 21.9138 70.5064
1045 1 22.005 24.0776 72.2537
962 1 24.7398 21.1398 69.4723
1047 1 28.1455 23.7123 71.0218
1086 1 20.8022 17.2266 78.8966
972 1 12.487 26.4639 72.1114
974 1 18.2659 26.0012 70.3749
2389 1 21.8021 28.6115 72.1783
976 1 24.821 26.5863 69.6274
1048 1 31.9762 25.5745 72.8831
1100 1 20.4325 21.9709 78.7915
914 1 5.72511 7.51999 72.667
756 1 33.8234 21.5061 53.2245
988 1 19.6339 8.39118 74.6566
990 1 26.7104 7.73157 73.0889
992 1 32.372 7.90604 72.8002
741 1 29.9806 14.7666 51.7201
997 1 3.90097 10.3347 75.6913
928 1 5.57729 12.7815 72.2831
999 1 8.98183 10.4508 74.2514
1001 1 15.7895 10.0398 73.1018
1002 1 19.7182 12.5699 74.534
1004 1 25.7137 12.4021 73.1471
1075 1 29.4671 10.3249 75.1849
942 1 6.25537 16.8623 73.1903
1013 1 9.29679 14.5624 74.264
1015 1 15.8721 14.7595 73.0997
1017 1 22.2545 15.239 72.0366
1016 1 19.7333 16.7227 75.0664
1018 1 25.617 16.8195 73.663
1089 1 29.4184 14.697 75.2666
1022 1 31.6196 16.2047 72.4396
1025 1 3.83269 18.8099 75.5041
1027 1 10.3272 19.1442 74.4614
1029 1 15.9867 19.3199 73.134
1103 1 29.1362 19.2976 75.0621
1083 1 10.567 14.5981 78.7101
1039 1 3.96604 23.6387 75.0392
956 1 6.57528 21.2899 72.8512
1041 1 10.3743 23.8699 74.3695
1043 1 15.1723 24.0832 73.5541
1030 1 19.3644 21.8791 75.0835
1032 1 25.4723 21.2435 74.0838
1117 1 29.2107 23.8421 75.3653
1034 1 31.8501 20.9078 72.6482
987 1 15.8178 6.04157 73.4655
970 1 7.05334 25.8847 72.6102
843 1 1.61795 5.88306 66.4439
1042 1 13.8132 26.5644 76.5419
1044 1 19.6343 25.7144 74.991
1046 1 25.3588 25.985 74.2146
1115 1 23.1318 24.1659 76.9688
982 1 1.24259 7.47832 78.4629
984 1 6.93902 8.03202 77.28
986 1 13.2497 7.63834 76.3337
1040 1 7.36373 26.4838 76.5724
709 1 18.089 5.65795 53.9663
1060 1 26.8388 7.82914 77.7917
996 1 1.54027 13.0033 78.1329
998 1 7.34723 12.606 77.676
1069 1 10.7132 9.7941 78.5787
1000 1 12.991 12.2809 76.0169
1071 1 16.7722 10.3225 77.8368
1073 1 23.6828 9.51536 76.2969
1074 1 27.1588 12.4031 78.0543
926 1 0.542992 12.2391 73.6982
1076 1 31.6522 12.3042 78.7035
1011 1 3.97569 14.5978 75.5786
1012 1 7.60218 17.3479 77.4301
1077 1 33.8809 10.3936 76.1389
1014 1 13.5891 16.8359 76.2001
1085 1 16.879 14.6035 77.8278
1087 1 23.1045 15.0305 76.5497
1088 1 26.7641 17.1415 78.1135
1090 1 31.431 16.5282 79.3717
2111 1 24.0951 28.4043 53.1126
1010 1 1.32199 17.6954 78.0063
1097 1 10.7881 19.3057 78.5661
1099 1 17.1486 19.0195 78.0499
1101 1 23.0812 19.5726 76.5498
1105 1 33.4703 19.1962 75.9371
1024 1 1.4419 21.3224 78.5386
1026 1 7.0349 21.8178 76.7042
1111 1 11.1418 24.103 78.23
1028 1 13.6573 21.5451 76.4028
1113 1 16.2883 23.8544 78.0057
783 1 31.3119 5.9718 56.2064
2461 1 29.5224 27.9712 75.0771
2177 1 12.8291 28.4224 59.4269
2113 1 30.1043 28.4 51.7522
921 1 26.5679 5.88008 67.0356
2383 1 4.2213 28.2368 75.382
2459 1 23.3813 27.8882 76.6668
2105 1 7.2219 28.5296 54.3458
845 1 7.31573 5.84249 65.2722
2247 1 14.0689 28.7384 64.0617
2315 1 9.28084 28.0582 69.2789
2103 1 2.61038 27.5115 53.9847
2253 1 32.3201 28.1224 60.4398
2463 1 34.2382 28.0351 76.0491