ITEM: TIMESTEP
360000
ITEM: NUMBER OF ATOMS
16000
ITEM: BOX BOUNDS pp pp pp
3.6796593632546859e-01 1.0183203406367929e+02
5.7701087059605314e+00 9.6429891294036139e+01
-5.2854538672194735e+00 1.0748545386721463e+02
ITEM: ATOMS id type x y z
1547 1 16.4239 28.2173 4.70082
1683 1 6.39135 28.1354 16.1009
62 1 14.8141 25.9065 -5.11407
8 1 19.8101 7.8983 -4.27125
10 1 24.3906 7.51146 -2.90204
12 1 28.7501 7.6032 -3.38265
14 1 33.1897 7.7959 -2.05686
18 1 10.5433 12.8521 -4.92206
85 1 3.38134 10.758 -3.02731
87 1 8.76155 10.2461 -2.48182
10969 1 0.602502 16.9141 5.61481
89 1 12.7009 10.2149 -1.80838
22 1 19.8065 12.5284 -4.21486
24 1 24.2468 12.1203 -3.321
26 1 28.3029 12.4464 -3.09954
28 1 33.0591 12.6054 -2.25896
99 1 3.937 14.9859 -3.11527
101 1 7.9633 14.8967 -2.6044
103 1 12.5578 14.9573 -2.11292
383 1 10.4414 14.6771 22.6626
113 1 3.70763 19.3495 -3.51885
115 1 8.26226 19.5843 -3.16468
34 1 15.5774 17.082 -4.96598
117 1 13.0226 19.5991 -2.11783
36 1 19.4982 17.3485 -4.27934
38 1 23.9307 17.3295 -3.00849
40 1 28.5507 17.3633 -2.63269
42 1 32.84 17.1249 -2.19983
127 1 3.65553 23.5334 -3.70467
129 1 8.33064 24.2189 -2.57784
10891 1 0.822149 12.4684 -0.459719
141 1 3.03178 6.15251 3.42397
131 1 12.8603 23.7351 -2.19756
50 1 19.5263 21.3624 -4.02217
52 1 24.3512 22.0326 -3.50004
54 1 28.7711 21.3996 -3.00588
56 1 33.4017 21.546 -1.95728
10995 1 0.607576 25.9727 5.55523
145 1 11.9185 5.90183 4.58797
64 1 19.3443 25.8884 -4.40218
66 1 24.1794 25.8712 -3.9779
68 1 28.3279 25.3708 -3.62839
70 1 33.1099 25.6665 -2.5323
10878 1 0.53844 7.8289 -0.418633
72 1 6.49266 7.80697 0.0668582
74 1 10.287 8.13971 1.60384
76 1 14.8166 7.73743 1.36959
7096 1 33.5338 28.3458 13.7419
1753 1 5.76973 28.3925 22.7673
86 1 5.3128 12.3279 0.0113401
88 1 10.2138 12.7903 0.228457
90 1 14.9091 12.6008 1.01388
91 1 18.0515 10.0738 -1.43214
93 1 21.842 10.0525 -0.698007
95 1 26.3005 9.67437 -0.0409829
97 1 30.4956 9.77871 0.533008
10904 1 0.576828 18.0891 -0.267844
100 1 5.23634 17.215 -0.225698
105 1 17.37 14.6249 -1.24115
107 1 21.4936 14.9788 -0.778878
109 1 26.2335 14.4406 0.11309
111 1 30.2799 14.3251 0.713684
102 1 9.70697 17.3031 0.818125
104 1 14.305 17.1116 1.73318
119 1 17.4893 19.7845 -1.36074
121 1 21.803 19.1083 -0.656293
123 1 25.9055 19.0886 0.0224594
125 1 30.212 19.1125 1.00908
10917 1 0.815881 21.8698 -0.443776
114 1 5.36083 21.7201 -0.0601827
116 1 9.87613 21.9138 0.625812
118 1 13.9001 21.7824 1.13497
133 1 17.2086 23.819 -1.14305
135 1 21.948 23.8275 -0.4719
137 1 26.2851 23.4784 -0.477136
139 1 30.0676 23.803 0.464187
10930 1 1.56396 26.6494 -0.147576
128 1 5.49264 26.3937 0.636556
130 1 9.98373 26.1971 0.459184
132 1 15.2515 26.1143 1.45073
1477 1 17.3359 28.426 -1.92438
411 1 10.5395 23.8994 22.9062
308 1 30.903 12.4292 22.832
5809 1 33.5149 10.331 14.0036
5796 1 33.5803 6.01225 14.0462
78 1 19.0191 8.48296 2.60041
283 1 6.74783 6.04023 16.1945
48 1 14.8907 21.1585 -5.17013
80 1 23.3428 8.41793 2.65564
82 1 27.9141 7.7288 3.57751
84 1 32.2304 7.79979 4.4974
155 1 2.73733 10.3952 2.87709
157 1 7.32567 10.5084 3.84429
159 1 11.9112 10.6371 4.05798
161 1 16.4029 10.1684 4.98509
92 1 19.4137 12.2594 2.39727
94 1 23.83 12.8545 2.66187
96 1 28.3941 12.5702 3.5742
98 1 32.2683 12.0156 4.42458
169 1 2.96302 15.03 2.61209
171 1 7.80639 14.8867 3.02218
173 1 12.2729 14.7963 3.99353
175 1 16.716 14.7497 4.90114
106 1 18.8164 17.0871 2.42695
110 1 27.8728 17.0655 3.71206
112 1 32.3425 16.7066 3.96662
183 1 3.67778 19.3217 2.79544
185 1 7.12147 19.6002 3.56633
187 1 12.0489 19.8154 4.11446
189 1 16.8112 19.4403 5.02136
108 1 23.6306 16.9644 2.85682
197 1 2.93822 24.0338 3.18387
199 1 7.41966 23.6149 3.75493
201 1 12.1146 23.9221 4.17349
120 1 19.2017 21.6613 2.33082
122 1 23.6796 21.6219 2.86594
124 1 28.07 21.6787 3.32801
126 1 31.8868 21.7325 4.17999
330 1 17.3057 21.9305 20.483
134 1 19.0477 25.7242 1.70014
136 1 23.605 26.3464 2.07854
138 1 28.0649 26.4891 3.23183
140 1 32.6067 26.3107 3.54295
142 1 4.71771 8.10108 6.40501
144 1 9.03783 8.41045 7.04264
146 1 13.668 7.80052 7.30198
148 1 18.1287 8.19049 8.06566
150 1 22.7199 7.9076 9.38012
1751 1 0.878727 28.1295 21.8109
156 1 4.6541 12.6895 6.07987
158 1 9.28912 13.039 7.26148
160 1 13.9863 12.4739 7.70021
162 1 18.0066 12.8427 8.11442
163 1 21.4301 11.0318 5.91333
165 1 25.401 10.4761 6.32511
164 1 23.0621 12.5955 9.07364
167 1 30.1749 10.1536 7.07732
170 1 5.27262 17.2217 5.99116
172 1 9.58837 16.8975 6.67132
177 1 20.7769 15.1785 5.70853
179 1 25.2051 14.533 6.28331
181 1 29.8696 14.7766 7.18633
349 1 28.5159 24.2551 19.9307
71 1 3.70596 6.374 -3.32629
174 1 13.8803 16.4737 8.16215
176 1 18.386 16.7268 8.27051
191 1 21.2879 19.7831 5.644
193 1 25.8198 19.9535 6.79832
195 1 30.4787 19.4842 6.99715
10982 1 0.555608 21.6097 5.56296
184 1 5.16832 21.8625 6.30767
186 1 9.6647 21.0248 6.90327
188 1 14.254 21.3578 7.4376
203 1 16.5871 23.3383 4.85576
205 1 21.265 24.4094 5.58772
207 1 25.4749 24.5294 6.10429
209 1 30.063 24.2354 6.91166
332 1 21.7091 21.6706 21.1185
198 1 4.88365 26.4074 6.77591
200 1 9.26296 26.3766 7.03129
202 1 13.967 26.1178 7.59902
287 1 15.2403 5.99685 17.1032
1481 1 26.4058 27.7729 -0.0883324
409 1 5.72665 23.716 22.4677
328 1 12.7767 21.706 20.2991
152 1 27.3503 7.6376 9.79437
154 1 31.8945 7.35242 10.5805
225 1 2.54699 10.1782 8.67999
227 1 7.13971 10.5995 9.69187
229 1 11.5292 10.1532 10.8475
231 1 15.5426 10.0085 11.5976
233 1 20.2786 10.3922 11.6452
166 1 27.4751 12.7461 9.84095
168 1 32.0118 12.3532 9.75468
239 1 2.88545 14.5335 9.10573
241 1 6.71703 14.7376 9.92296
243 1 11.0878 15.0786 10.7459
245 1 15.654 14.7313 11.5218
247 1 20.3931 14.6959 12.0086
180 1 27.0957 17.4014 9.62898
253 1 2.69887 19.2025 9.20064
255 1 7.32497 19.4009 9.46571
257 1 11.6178 18.9356 10.5322
259 1 15.7537 19.3299 11.383
261 1 20.4722 19.3558 11.5529
178 1 22.7555 17.2906 9.15702
182 1 31.6415 17.0131 10.8655
267 1 2.1689 23.7424 9.48054
269 1 7.29011 24.2228 9.80182
271 1 11.4985 23.4038 10.6694
190 1 18.9982 21.8917 8.31013
273 1 16.112 23.7666 11.1454
192 1 23.4956 22.1036 8.99652
275 1 20.1829 24.0275 12.0523
194 1 27.4469 21.8259 9.38265
196 1 31.9988 22.312 10.6188
204 1 18.5523 26.4935 7.97278
206 1 22.5287 26.1642 9.49924
208 1 27.0542 26.6413 9.87148
210 1 31.6163 26.1283 10.0559
212 1 4.382 7.84602 12.4477
214 1 8.89315 7.92246 12.942
216 1 13.1791 7.77196 14.1164
218 1 18.0051 8.04227 14.0484
221 1 24.776 5.86336 13.0539
1483 1 31.0906 28.2087 0.198775
226 1 4.14091 12.4565 12.8741
228 1 8.9276 12.5498 13.5244
230 1 12.6761 12.4644 14.255
232 1 18.3814 12.2673 14.3143
234 1 22.0748 12.4054 15.2229
235 1 24.7573 10.3868 12.433
237 1 29.5388 10.1161 13.116
334 1 26.1406 21.9844 21.9193
240 1 4.70771 17.1295 12.7015
244 1 13.2999 17.413 14.3077
246 1 17.8581 17.0218 14.6848
248 1 22.5571 17.0906 15.5885
249 1 24.9002 15.0844 12.6539
251 1 29.4067 14.8306 12.8227
250 1 26.8361 17.3449 16.3315
5822 1 34.0687 14.9973 13.288
323 1 2.27976 18.8 15.4499
242 1 8.72888 17.2472 13.3612
263 1 24.6001 19.5204 12.8753
265 1 29.1288 19.2464 12.745
5835 1 33.6196 19.1379 14.1582
337 1 2.23939 23.1421 15.2234
254 1 4.20593 21.523 12.217
256 1 8.40873 21.6373 13.0616
258 1 13.5055 21.6826 14.5975
260 1 17.9637 21.8668 14.6598
262 1 21.968 21.4615 15.5139
277 1 24.8613 23.8687 12.5658
279 1 29.182 24.035 13.1069
264 1 27.173 21.6316 16.1608
5848 1 34.0249 23.7226 13.5078
268 1 4.34569 26.0808 12.6376
346 1 21.3109 25.7548 21.2856
270 1 9.06799 26.2765 13.4452
272 1 13.2877 26.5361 13.8784
274 1 17.2629 26.3632 13.9729
276 1 21.5392 27.3256 15.1677
278 1 26.6898 26.2542 16.3009
282 1 3.50627 8.1739 19.3142
220 1 22.2867 7.71268 15.3044
344 1 16.8673 26.6128 21.4446
291 1 24.6277 6.12199 18.1405
222 1 26.8851 8.4461 16.1795
224 1 31.6099 8.03299 16.8119
295 1 1.51895 9.61378 15.3794
296 1 3.96435 12.5261 19.0297
297 1 5.94059 10.5317 16.0021
299 1 10.1944 10.2847 16.7413
301 1 14.7889 10.3874 17.6292
303 1 19.573 10.5439 18.194
305 1 24.2564 10.6783 18.3473
236 1 27.5065 13.0805 16.0909
238 1 31.6279 12.7034 16.5495
309 1 1.52276 14.9188 15.3185
311 1 6.03462 15.219 16.291
313 1 10.7458 14.8534 16.8371
315 1 15.2911 14.3575 17.363
317 1 19.1337 14.9108 17.7362
319 1 24.0458 14.6299 18.9379
252 1 31.2226 17.2517 16.4431
310 1 3.70834 17.1769 19.3391
325 1 6.0685 19.7602 16.4914
327 1 10.7811 19.4943 16.9301
329 1 15.4554 19.0804 17.4118
331 1 19.8907 19.5339 18.1988
333 1 24.4611 19.4365 18.7763
335 1 29.2324 19.8069 19.9348
324 1 4.14637 21.8645 19.3524
339 1 6.66911 24.3337 16.3425
341 1 11.2072 24.248 17.119
343 1 15.5937 24.491 17.5069
345 1 19.2194 24.3332 18.0292
347 1 24.1217 23.9094 18.7765
266 1 31.7201 21.6099 16.2598
338 1 3.52456 25.6889 19.0009
348 1 26.1763 26.6334 21.7515
342 1 12.3919 26.1314 20.467
326 1 8.1943 21.4703 19.754
280 1 30.91 26.3132 16.738
340 1 8.36571 26.4872 19.6365
407 1 0.502518 23.3309 21.9051
284 1 8.12705 7.68838 20.1901
286 1 12.4516 8.35351 20.2483
288 1 16.8812 7.88608 21.1083
290 1 21.4981 8.16169 20.9867
292 1 25.9187 8.56971 22.0554
5913 1 32.9696 23.9416 20.3674
5861 1 33.4383 5.97263 19.721
294 1 30.4051 7.97306 22.7631
365 1 1.38685 10.439 21.9059
298 1 7.90229 12.3722 19.4174
300 1 12.53 13.0206 20.0841
302 1 17.2497 12.601 20.8802
304 1 21.7484 12.1333 22.0059
306 1 26.4014 12.3971 22.2579
307 1 29.0881 10.5392 19.7586
5874 1 33.5284 10.0141 19.8587
379 1 1.09163 14.9146 22.0129
381 1 5.77838 15.0057 22.8727
312 1 7.98893 17.1373 20.0684
314 1 12.997 17.0836 20.3673
316 1 17.1616 17.2279 20.5724
318 1 21.6493 17 21.9102
320 1 26.2311 17.1979 22.2903
321 1 28.3614 15.2844 19.667
5887 1 33.5612 14.5494 20.1567
393 1 1.32989 19.3576 21.4435
289 1 19.8541 6.09894 18.1084
5900 1 33.3757 19.2462 20.0135
1611 1 2.40406 28.3162 8.88125
6 1 15.3204 7.94248 -4.86413
79 1 21.6736 6.21704 0.0500419
4 1 10.7895 7.73965 -4.98717
217 1 16.4218 5.80922 10.6546
1479 1 21.7019 28.0926 -1.26682
20 1 15.3155 12.6482 -3.84839
149 1 20.9969 5.80392 5.86281
147 1 16.6028 5.86773 5.35117
1473 1 8.41316 28.3405 -2.37269
1681 1 2.36008 27.297 15.6139
1545 1 12.1697 28.2944 4.10552
1553 1 30.1035 28.1463 7.36711
1549 1 21.0353 28.325 5.62457
1691 1 24.2343 28.4468 18.6014
1543 1 7.73162 28.3841 3.77277
367 1 5.75579 10.2719 22.8053
69 1 32.036 22.6688 -5.16984
352 1 3.53015 8.31317 25.3577
354 1 7.76316 7.6632 26.0563
356 1 12.387 8.3193 26.0679
519 1 0.507816 15.0486 34.7363
366 1 3.00167 12.6999 25.6996
368 1 8.1537 12.6809 25.3037
395 1 5.52222 19.5609 23.1307
369 1 10.3697 10.3264 23.0638
371 1 14.6959 10.5839 23.7316
373 1 18.9625 10.2864 24.4625
375 1 23.6078 10.2692 25.7378
377 1 28.1087 10.2461 25.8004
357 1 14.7927 6.13343 23.847
380 1 3.04364 17.3595 25.4852
382 1 7.78094 16.5606 26.0601
449 1 0.770066 14.624 28.1699
385 1 15.1995 14.7117 23.5674
387 1 19.677 14.5976 24.4133
389 1 23.4516 14.8551 25.0866
391 1 28.1022 14.7976 25.7204
5952 1 33.2404 14.2803 25.7212
5991 1 31.1143 6.56127 31.7711
399 1 15.0926 19.284 23.5193
401 1 19.0542 19.3631 24.0591
403 1 23.4932 19.6654 25.3408
405 1 28.0756 19.1345 26.0569
7421 1 34.0056 27.8121 41.8459
394 1 2.92453 21.1919 25.4469
396 1 7.74845 21.4028 25.7416
688 1 0.841843 25.7112 50.1677
674 1 0.912345 21.5546 50.445
413 1 14.9998 23.9991 23.6563
398 1 12.4443 21.5083 26.6197
415 1 19.4485 23.7944 24.0595
417 1 23.5767 24.42 24.8959
419 1 28.0712 23.4945 25.7628
7291 1 32.4672 28.0325 32.7678
5978 1 32.8597 23.6737 26.2163
408 1 2.83107 25.9879 25.501
410 1 7.52344 26.1747 25.7968
431 1 23.1365 5.73551 31.0073
350 1 30.2667 26.2197 23.1957
361 1 23.6296 6.03841 24.8146
6160 1 34.0194 18.8278 41.1046
358 1 16.7592 8.58536 27.192
360 1 20.787 7.54104 28.1435
362 1 25.4913 7.63626 28.4789
364 1 29.9266 8.02243 28.3398
435 1 0.726716 9.78961 28.1086
437 1 5.15242 9.76223 28.5893
370 1 11.9847 12.6998 26.4925
372 1 16.6045 13.1804 27.1815
374 1 21.218 12.3694 28.0754
376 1 25.7395 12.413 28.576
378 1 30.4301 12.1414 28.7719
5939 1 32.7416 10.1 26.2835
451 1 5.552 14.5288 28.8839
453 1 9.81231 14.3405 29.599
384 1 12.4022 17.2627 26.267
386 1 16.9691 16.8895 27.34
390 1 25.3219 17.1143 28.2453
392 1 30.2462 16.9048 29.0387
2033 1 3.0635 28.0358 47.9244
465 1 4.78492 19.4263 28.3873
467 1 9.42683 19.1349 29.4015
388 1 20.803 16.7641 27.6023
5965 1 32.316 18.9535 25.8932
700 1 32.3352 25.7867 48.9163
479 1 5.13087 23.5206 28.8494
481 1 9.51281 23.8277 28.8394
400 1 17.0962 21.3465 27.2687
402 1 21.2286 21.4873 27.7251
404 1 25.5053 21.8007 29.1886
406 1 30.4637 21.4832 29.3485
1823 1 5.00822 28.2916 29.018
660 1 0.69628 17.0672 50.1445
412 1 12.0301 26.0332 26.865
414 1 16.5628 25.977 27.4472
416 1 21.3315 25.6301 28.0239
418 1 26.0668 26.4876 28.5304
420 1 29.9977 26.1307 29.1729
422 1 2.48159 7.58463 31.7094
424 1 6.8504 7.09412 32.1554
426 1 11.2138 8.25452 32.859
477 1 0.813922 23.497 27.938
397 1 10.3549 19.2354 23.2627
436 1 2.82977 12.2104 31.4274
438 1 7.40308 11.7558 32.1665
439 1 9.25929 9.93309 29.0212
440 1 11.1839 12.867 33.4551
441 1 13.4709 11.0658 29.92
443 1 18.1334 10.2752 30.5552
445 1 23.6418 10.5506 31.2019
447 1 27.4507 10.002 31.9608
1827 1 14.4697 28.3229 30.0198
6004 1 31.9016 10.7949 31.6896
450 1 2.89244 16.9981 31.5196
452 1 7.2409 17.3402 32.2937
454 1 11.5057 17.0457 32.9149
455 1 13.5568 15.5045 29.9771
457 1 17.8548 14.806 30.4484
459 1 22.7331 15.0163 31.4533
461 1 27.5641 14.5144 31.63
6017 1 32.5205 14.4991 32.5083
469 1 14.1193 19.4293 30.2154
471 1 18.2416 19.4423 30.5368
473 1 23.0455 18.9351 31.2064
475 1 27.5834 19.0429 32.1135
6030 1 32.2332 19.4476 32.6062
464 1 2.39721 21.8809 31.6299
466 1 6.81188 21.1518 32.6628
483 1 14.2091 23.4925 29.5798
468 1 11.3237 21.6905 32.8724
487 1 23.1035 24.0618 31.3205
489 1 27.7043 23.8169 32.2598
6043 1 31.9893 24.1172 32.8736
478 1 2.21552 26.4837 31.0047
480 1 7.35557 25.8157 32.1999
482 1 11.3411 25.963 32.6711
698 1 26.7739 25.971 50.7353
485 1 18.351 23.6341 31.0477
428 1 16.0809 8.27156 32.7709
430 1 20.5201 7.75043 33.541
432 1 25.0013 8.29072 34.3415
434 1 29.9754 8.11389 35.1259
507 1 4.79005 10.2609 34.8311
509 1 8.7727 10.9662 35.9836
442 1 15.9609 13.0862 33.4339
511 1 13.5281 10.3727 36.2527
444 1 20.4577 12.7859 33.7947
446 1 24.9283 12.8943 35.0422
448 1 29.4644 12.2299 35.3086
521 1 4.92962 14.6974 34.9915
523 1 8.68371 14.9263 36.146
525 1 13.3735 15.0249 37.2383
458 1 20.1402 17.3834 34.1426
462 1 29.3534 17.1388 34.9968
6082 1 33.1991 14.2836 37.3006
535 1 4.50566 19.4822 35.1628
537 1 8.44713 19.0142 35.7912
539 1 13.1619 19.4315 36.4966
456 1 16.0159 17.0272 33.8243
460 1 24.8546 16.7576 34.5404
6095 1 32.8613 18.9179 36.4313
549 1 4.23551 24.0297 35.2701
551 1 9.1313 23.7721 36.0923
553 1 12.9907 24.1439 36.0131
470 1 15.6937 21.6508 33.6242
555 1 17.4516 23.3115 36.5184
472 1 20.8433 21.2232 34.2977
474 1 24.7892 21.0739 34.5977
476 1 29.3526 20.9615 35.4261
427 1 13.8854 6.12269 30.1652
336 1 30.529 21.642 22.9395
676 1 5.02588 21.6331 50.4995
484 1 16.0034 26.2116 33.0983
486 1 20.7488 25.6993 34.4649
488 1 24.7437 25.9041 35.2625
490 1 29.4648 25.7105 35.2752
492 1 1.68685 8.06045 37.9965
494 1 6.30063 8.04257 37.8585
496 1 11.0141 8.01056 38.9094
498 1 15.5419 8.13881 39.7264
2041 1 23.3968 28.1355 48.179
7356 1 33.1885 28.0286 37.5667
695 1 16.994 23.8451 49.4346
506 1 2.09849 12.5588 37.7548
508 1 6.81491 12.4106 38.5932
510 1 11.2954 12.4654 39.5697
512 1 16.159 12.2472 39.5695
513 1 17.6877 10.204 36.6281
515 1 22.1456 10.3902 37.43
517 1 27.2074 9.99318 38.0423
6069 1 33.2598 10.2228 37.426
518 1 30.8485 12.287 40.4585
520 1 1.58091 17.0123 37.5929
524 1 11.0157 17.1841 39.7025
526 1 15.6593 17.0522 39.8733
527 1 18.0727 14.6816 37.3174
529 1 21.9409 14.5287 37.9024
531 1 27.3759 14.3692 37.9192
522 1 6.55261 17.196 38.4919
541 1 17.5142 19.39 37.2757
543 1 22.1499 19.026 37.8188
532 1 30.5893 17.1 40.0291
545 1 27.0887 19.123 37.8465
534 1 1.86886 21.2676 38.1456
536 1 6.50174 21.7646 38.9671
538 1 10.3096 21.7613 39.1282
540 1 15.1469 21.705 40.2702
557 1 22.0128 23.5839 37.6203
542 1 19.9487 21.4357 40.1459
559 1 26.7096 23.7852 38.2131
546 1 30.7371 21.6614 39.5965
6108 1 32.9124 23.4719 37.0582
548 1 1.98159 26.0533 37.7025
550 1 6.51476 26.1421 38.6716
552 1 10.9851 26.3611 39.6186
554 1 15.5588 26.087 39.8164
556 1 20.0929 26.2312 40.2817
5926 1 32.4338 5.91481 25.6288
560 1 30.5487 25.9861 39.7603
693 1 12.3499 24.5438 49.0344
686 1 32.8109 21.2957 48.7301
691 1 7.67604 23.809 48.5614
500 1 20.2 8.35277 40.1102
502 1 24.4475 8.45294 41.2653
2043 1 29.4501 28.299 47.6874
504 1 31.0809 7.6633 39.737
577 1 3.96147 10.0829 40.2721
579 1 8.52409 9.93041 41.5298
581 1 13.1639 10.1988 42.5545
583 1 17.5775 9.856 43.554
514 1 20.4755 12.1197 40.801
585 1 22.2716 10.0356 43.9754
516 1 24.7931 12.7758 41.0518
587 1 28.2604 10.1528 42.5749
591 1 3.96533 14.6518 41.1616
593 1 8.6943 14.5256 41.4942
595 1 12.9704 15.1495 43.0293
597 1 17.4376 14.3128 43.2068
599 1 22.6316 14.2893 44.4226
528 1 19.8897 16.7022 40.7091
530 1 24.596 16.7091 40.9885
601 1 28.1484 14.9915 42.6612
503 1 27.3638 6.06505 38.2558
605 1 4.10413 19.0652 42.0149
607 1 8.09865 19.22 42.1497
609 1 12.7656 19.6713 42.6475
611 1 17.4393 19.4883 43.522
613 1 22.097 19.2031 43.5095
615 1 28.2234 19.1226 42.5389
1963 1 3.99149 27.8177 41.2873
619 1 3.67585 23.6257 40.9948
621 1 8.60002 23.8571 42.0712
623 1 12.9616 23.524 42.9331
625 1 17.5424 24.0977 43.5042
627 1 21.7778 23.7066 43.789
544 1 24.7275 21.708 40.9601
629 1 27.8422 23.6932 42.7416
697 1 22.8715 23.4813 47.6292
648 1 5.40079 12.2314 50.6097
696 1 20.1062 25.7539 50.7686
558 1 24.5808 26.2506 40.9176
684 1 26.5802 21.3274 49.7664
562 1 1.56699 8.03945 43.6936
564 1 5.94631 7.8826 45.0337
566 1 10.2296 7.47494 45.061
568 1 14.7634 8.01531 45.9583
570 1 19.2784 8.42358 46.77
572 1 25.9095 7.68308 45.516
574 1 31.4741 7.8552 44.4818
576 1 1.58241 12.4836 43.7881
578 1 5.5022 12.2362 44.2517
580 1 10.0216 12.301 45.33
582 1 14.574 12.2901 46.4121
584 1 19.424 12.4128 47.0193
586 1 25.593 12.5581 45.8252
657 1 29.7154 9.8211 47.6818
588 1 31.0673 12.471 45.1603
592 1 6.09387 16.874 44.6403
596 1 14.4905 16.4049 46.2746
669 1 22.4642 14.3137 48.3282
671 1 29.2543 14.6458 47.3901
602 1 31.8291 16.8083 45.0011
590 1 1.43296 17.1023 44.2237
594 1 10.4705 16.7053 45.5827
598 1 18.9176 17.046 46.6281
600 1 25.1801 16.8808 45.4927
685 1 28.785 19.3759 47.1584
604 1 0.987526 21.0073 43.9485
606 1 5.46745 21.6899 44.9049
608 1 10.0497 21.863 45.9607
610 1 14.6426 21.3337 46.3636
612 1 19.3341 21.6084 46.6446
614 1 25.7072 20.8965 45.3505
699 1 29.3766 23.096 47.1948
616 1 31.8065 21.5486 44.0693
618 1 1.49668 25.4436 44.4278
620 1 6.0795 26.2416 45.0573
622 1 10.2979 26.4624 45.5337
624 1 15.0086 25.8684 45.9663
626 1 19.583 26.2634 46.2854
628 1 26.1227 26.0498 45.5181
689 1 3.16842 23.3816 47.5013
630 1 31.5286 26.0537 44.3307
569 1 17.811 5.86481 43.1771
632 1 1.03148 7.88679 50.2869
2039 1 16.5824 27.8049 49.4861
642 1 26.163 8.20345 49.8822
644 1 33.0031 8.13135 48.9733
647 1 3.47722 10.5578 47.6006
646 1 0.647373 11.9745 50.4884
672 1 32.8985 17.2954 48.7647
649 1 7.60929 9.73429 48.0655
651 1 11.6037 10.0504 49.2378
653 1 16.2381 9.9287 49.129
655 1 23.2779 10.5202 48.4296
656 1 26.2766 12.7954 50.1957
658 1 33.0802 12.6504 49.3647
661 1 3.16983 14.4844 47.6158
663 1 7.14806 14.7383 48.1874
665 1 11.6146 14.7138 48.8091
667 1 16.4606 14.7347 49.7484
6134 1 34.0301 10.5417 42.1525
670 1 26.2285 16.6533 49.9675
675 1 2.97689 18.4881 47.4109
567 1 13.0764 6.43916 42.0469
677 1 7.65 19.5007 48.1288
679 1 11.718 18.8641 49.2419
681 1 16.0871 19.4206 49.3573
683 1 22.9077 18.7634 48.2816
1895 1 9.62127 28.1474 35.4089
421 1 1.34874 5.76114 27.4871
1761 1 23.9973 28.1987 25.1075
1829 1 19.0531 28.1626 30.9395
1893 1 4.88632 28.2121 34.7781
1831 1 23.6746 27.8649 31.385
1897 1 13.4248 28.226 36.1588
495 1 9.10458 6.16283 35.7528
571 1 21.8898 6.33929 43.661
643 1 29.2125 5.96174 46.8968
1967 1 13.2218 28.44 42.5874
1763 1 27.8497 28.375 25.5698
1971 1 22.0178 28.4108 44.0853
2037 1 11.8766 28.2697 48.4325
1825 1 9.67457 28.337 28.9337
1759 1 19.409 28.3803 25.0791
639 1 16.6875 5.8647 49.8174
363 1 27.6562 5.75483 25.1027
565 1 8.10953 5.79455 41.6374
497 1 13.866 5.93304 35.8546
641 1 22.6426 5.80388 48.1489
501 1 22.7624 5.87317 37.4894
634 1 5.49654 6.63861 51.0912
662 1 5.2835 16.903 50.9977
322 1 30.8296 16.8757 23.041
1057 1 16.6928 5.87036 77.2867
664 1 9.17128 16.2741 51.9792
702 1 0.605532 7.93058 56.8836
638 1 14.1095 7.45898 52.2428
744 1 0.752558 21.7129 57.2085
987 1 16.0388 5.84586 72.6657
775 1 6.89312 6.02414 60.8424
1038 1 1.77781 26.3022 78.366
717 1 3.57569 10.0871 53.4341
719 1 6.99075 9.34626 54.7853
650 1 8.80875 12.1589 51.6749
652 1 14.5425 12.2323 52.2042
723 1 17.6817 10.1591 53.7724
921 1 27.0434 6.28914 66.005
725 1 23.7329 10.2901 53.2321
726 1 27.8398 12.1717 54.5533
727 1 29.8521 10.2421 51.7295
731 1 2.51032 14.6552 53.7678
666 1 13.5898 16.9756 52.4952
737 1 17.7087 14.8215 54.405
739 1 24.3917 14.8556 52.9013
741 1 30.1698 15.0775 51.7995
740 1 27.4424 16.9807 54.4812
711 1 24.0185 6.39807 52.6899
745 1 2.6093 19.2357 53.8428
747 1 7.16909 19.5029 54.7825
2107 1 11.8478 28.1778 55.3175
912 1 0.382403 8.30748 73.2663
751 1 17.7046 19.1365 54.0086
753 1 24.0289 19.5502 52.6208
755 1 29.7647 19.6723 51.618
759 1 2.39759 23.8542 54.1977
690 1 5.43415 25.8028 51.3097
678 1 9.53375 21.945 51.7898
680 1 14.0951 21.5818 52.2011
765 1 17.6821 23.2563 53.5498
767 1 24.4317 23.6164 53.2608
769 1 30.0305 23.9988 51.7874
754 1 27.5945 21.7415 54.3824
756 1 33.8112 21.4921 53.2966
716 1 0.442749 12.4022 56.3763
692 1 9.78256 25.8866 52.0709
694 1 14.3885 25.6817 52.9161
770 1 33.7118 26.2035 53.6546
1040 1 7.44571 26.1074 76.6881
768 1 28.0391 25.7557 55.3151
926 1 0.732239 12.5378 73.6062
1021 1 33.7877 15.2239 68.9781
915 1 9.13892 6.02373 69.8722
704 1 4.51605 7.88035 57.315
714 1 33.4995 7.74081 52.8865
708 1 14.8555 7.99984 56.8325
710 1 21.0512 7.58678 55.6709
712 1 27.7429 7.69908 54.3389
636 1 9.42796 7.44287 51.2032
718 1 4.7158 12.3109 57.3805
720 1 9.55598 11.8425 58.0319
721 1 11.6241 9.67768 54.4688
722 1 14.1879 11.934 56.3032
724 1 21.0586 12.8636 55.3493
795 1 24.7118 9.99371 57.0306
797 1 31.2653 10.0198 56.2613
733 1 7.01404 14.0257 54.6829
735 1 11.4683 14.5093 54.559
738 1 21.5554 17.1267 55.7529
809 1 25.3242 14.5853 56.853
811 1 30.861 14.7277 56.4032
2105 1 7.08059 28.1898 54.6516
732 1 4.53796 16.5872 56.937
734 1 8.78986 16.6082 58.0513
749 1 11.0503 19.4069 55.2411
736 1 15.2225 16.9219 57.5675
821 1 18.8637 19.8082 58.511
823 1 24.9098 19.1606 57.0006
825 1 31.3407 19.3614 56.1076
761 1 6.51733 23.5015 54.4538
746 1 4.77983 21.3205 57.671
748 1 9.51174 21.044 58.8021
763 1 11.9569 24.002 55.5327
750 1 14.8134 21.4355 56.6394
752 1 21.2006 21.71 55.6871
837 1 25.2506 24.0348 57.1443
839 1 31.3558 24.0432 56.3967
760 1 4.3236 25.9158 57.8508
762 1 9.11781 25.5114 57.8648
764 1 15.4888 26.0634 57.0002
766 1 21.3703 25.6622 55.0439
728 1 33.741 12.5811 53.2869
706 1 9.19119 8.04361 57.714
654 1 20.2105 12.4087 51.677
778 1 16.9594 7.91261 60.8557
780 1 22.0383 7.6854 60.0859
1069 1 11.3682 10.4443 78.5072
782 1 28.8112 8.19632 58.7829
787 1 2.14005 10.1565 60.666
789 1 6.71647 10.2881 61.0519
791 1 13.0722 10.4771 59.5162
792 1 16.6164 12.5888 61.0198
793 1 18.551 10.1343 58.1144
794 1 22.0589 12.6715 59.8173
865 1 25.1922 9.69902 61.3899
796 1 27.9481 12.3538 59.1008
867 1 32.2951 10.2189 59.8974
801 1 1.78611 14.8299 60.2086
803 1 6.52261 14.0709 60.7055
805 1 11.9522 15.1634 58.8089
806 1 16.5337 17.1692 61.4759
807 1 19.0947 15.0807 58.0456
808 1 22.831 16.5252 60.1601
879 1 26.4712 14.4565 62.1524
881 1 32.3786 14.9629 60.8524
815 1 1.93474 19.1812 60.1162
817 1 6.03775 19.1502 60.8523
819 1 12.4979 19.0722 59.686
810 1 28.5329 16.769 58.8053
893 1 25.9072 19.081 61.4861
895 1 31.7555 19.5275 60.7517
829 1 2.08759 23.9064 60.3439
831 1 6.69819 23.7054 61.27
833 1 12.4172 23.7048 59.3939
820 1 16.3247 21.9484 61.5839
835 1 18.4431 23.9042 58.1707
822 1 22.563 21.5995 60.2751
824 1 28.4331 21.4915 59.0812
909 1 32.0092 23.9303 61.1415
1104 1 31.3762 21.8561 78.4643
834 1 16.4152 26.5745 61.3051
836 1 22.2261 25.546 59.4709
838 1 28.5126 26.5299 59.6286
2455 1 10.9911 28.4381 78.2465
774 1 4.54571 8.28145 63.3069
776 1 10.4991 8.26319 62.0761
850 1 23.4535 8.37221 64.5048
852 1 29.4989 7.47883 63.0069
788 1 3.98457 12.7725 64.1386
790 1 10.4806 12.6394 62.5039
861 1 14.2324 9.96869 64.0895
863 1 20.0016 10.2577 63.053
864 1 23.6654 12.3494 64.9433
866 1 29.1092 12.0114 63.0167
873 1 7.94119 15.0062 65.2063
875 1 14.1901 15.1258 64.096
877 1 20.2772 14.5625 62.58
880 1 30.0719 17.307 63.2356
802 1 4.38237 17.1053 63.3143
887 1 7.29552 19.4763 64.7344
804 1 10.0508 16.5776 62.2783
889 1 14.1815 19.2978 64.4638
891 1 19.9879 19.2304 62.8261
878 1 23.425 17.1015 64.8428
1033 1 33.6859 19.9224 64.7878
816 1 4.02354 21.6289 63.8144
818 1 10.6306 21.927 62.8282
901 1 8.04564 24.1168 65.3466
903 1 14.0408 24.0585 63.9237
905 1 19.7502 24.0154 62.6403
907 1 25.8971 24.0413 62.0301
892 1 23.5651 21.8572 64.5207
894 1 29.4161 21.458 63.3086
964 1 33.1478 23.7276 65.1984
830 1 3.99902 26.3098 64.0018
832 1 10.4692 26.499 61.949
1115 1 23.1438 23.9567 76.2145
906 1 23.2916 26.3189 63.9956
908 1 29.7549 26.021 63.8656
640 1 20.1853 8.44368 51.2596
844 1 5.17984 7.54966 68.3784
1116 1 26.9265 26.4234 78.0935
846 1 11.6638 8.18338 66.601
848 1 17.8241 7.83879 65.5071
668 1 20.0519 17.0923 51.1586
920 1 24.6716 8.28068 69.0644
922 1 30.9708 8.19148 67.3479
1055 1 10.8972 6.23653 78.1417
857 1 1.72644 10.2329 66.5663
858 1 5.38967 12.8026 68.6922
859 1 7.88193 10.3268 65.5264
860 1 11.57 12.7491 66.7945
931 1 15.1006 10.4088 68.3109
862 1 17.7334 12.6701 65.6544
933 1 20.7955 10.7838 67.7898
935 1 27.5934 10.1169 66.2883
937 1 32.8996 10.3164 64.5746
936 1 30.5286 12.7192 67.5962
871 1 2.06714 14.9249 66.7214
872 1 5.07971 17.1956 67.9745
945 1 14.9128 14.8053 68.6077
876 1 17.9418 17.1949 65.7187
947 1 21.0637 15.2227 67.6106
949 1 27.6071 14.5648 65.9811
951 1 32.6384 14.2455 64.6107
885 1 1.68106 19.0695 66.5597
874 1 11.9058 17.212 66.7792
961 1 21.3063 19.563 67.1676
963 1 27.3544 19.3999 66.1469
950 1 30.7208 17.2765 67.5212
899 1 1.65885 23.8497 66.1146
886 1 5.35138 21.6657 67.5785
888 1 12.0437 21.2082 67.0726
973 1 14.5546 24.2226 68.4203
890 1 17.5676 21.8101 65.9949
975 1 21.3808 24.3063 66.936
977 1 26.7786 23.5916 66.7531
1035 1 30.9574 22.0264 68.0379
900 1 5.93457 26.1159 67.8364
902 1 10.999 26.7482 66.6403
1061 1 29.6062 6.07959 75.0044
904 1 17.7922 26.4899 65.127
2387 1 16.4575 28.4109 72.649
978 1 31.1405 26.7117 68.3722
968 1 0.494596 26.2242 73.8295
916 1 13.1556 7.96674 70.9263
918 1 18.4129 8.12964 70.2986
1026 1 7.71678 21.8077 76.7837
1077 1 33.618 10.9471 75.7986
2247 1 13.5381 28.1706 63.61
927 1 2.73172 10.2401 70.8395
929 1 8.91015 10.3338 69.4695
930 1 12.3824 12.3861 71.5117
932 1 18.9278 12.7422 70.203
1003 1 22.3204 10.2535 72.0983
934 1 24.5036 12.8917 69.1092
1005 1 28.1381 10.2256 70.7998
1024 1 0.869672 21.8082 78.367
941 1 3.51217 14.9902 71.3171
943 1 9.14658 15.4731 69.7761
944 1 13.2066 16.9307 71.2979
946 1 19.1293 17.1654 70.63
1017 1 22.3128 15.0728 72.3598
1019 1 28.5447 14.975 70.6249
955 1 2.5771 19.3386 71.0598
957 1 8.59765 19.7977 69.3645
959 1 15.2777 19.4724 68.9329
1031 1 22.7516 19.3919 71.5506
948 1 25.2948 17.7046 68.9739
1020 1 28.2229 19.6021 70.5989
917 1 15.7897 5.89616 68.4961
969 1 3.26782 24.1151 71.138
971 1 9.95863 24.1206 69.292
958 1 12.7051 22.0833 71.731
960 1 19.305 21.6832 70.0323
1045 1 22.6148 23.6213 71.5843
962 1 24.6167 21.9141 68.9263
1047 1 28.3205 24.0071 70.7974
1034 1 31.9971 22.0065 72.3966
682 1 20.5948 21.6658 51.2366
1007 1 33.8905 11.1408 69.2274
2321 1 27.4636 28.2754 66.2652
972 1 13.016 26.7152 70.9033
1090 1 31.0598 17.2757 78.1291
974 1 18.6624 26.2373 69.7662
1102 1 27.0265 21.8798 77.3569
976 1 24.5089 26.2904 68.7503
1048 1 32.0657 26.2125 72.6686
1118 1 31.6447 26.2379 78.0495
914 1 6.25146 8.42764 72.6993
986 1 13.1279 8.36689 75.6775
988 1 19.5143 8.00383 74.8757
990 1 25.4381 8.16967 73.6256
781 1 24.7003 5.89632 57.3072
992 1 32.138 8.2261 71.9724
928 1 6.5694 12.3375 72.9933
997 1 4.08964 10.3569 75.2952
999 1 9.98431 10.6408 73.8724
1000 1 13.2573 12.8396 75.7806
1001 1 16.3771 10.5674 73.4254
1002 1 19.6694 12.6569 74.8564
1004 1 25.6552 12.8135 73.9638
1075 1 29.27 10.4089 75.0319
1006 1 31.5287 13.2341 72.1823
1011 1 3.74974 15.012 75.2297
942 1 6.55511 17.39 72.2808
1013 1 9.9225 15.3359 74.147
1015 1 16.3393 15.1024 73.1524
1018 1 26.1057 17.2423 73.6967
1089 1 29.792 14.7012 75.2991
919 1 21.3041 6.31218 66.9754
1025 1 3.65883 19.6265 75.5193
1027 1 9.79814 19.1674 73.8092
1014 1 13.4992 17.1114 75.8865
1029 1 16.1034 19.5845 72.838
1016 1 19.4395 17.0176 74.4853
1103 1 29.5646 20.2407 74.956
843 1 1.77483 6.16379 66.3762
1022 1 31.934 17.4179 71.9647
1039 1 4.08772 24.4056 75.2589
956 1 6.72432 21.9605 72.0802
1041 1 9.88346 24.1178 73.3528
1043 1 16.8454 24.1765 72.5085
1030 1 20.4213 21.7405 74.4013
1032 1 26.2206 21.7443 73.4805
1117 1 29.7717 24.0137 75.2152
2103 1 2.82584 27.8413 53.8626
2313 1 3.02204 28.1398 70.7431
970 1 7.04741 26.575 72.3676
1114 1 20.9576 25.9397 79.0718
1042 1 13.9102 26.029 75.6115
1044 1 19.7523 26.2147 74.0483
1046 1 26.2028 26.2144 73.3076
1113 1 17.8282 24.4973 77.0287
982 1 1.69836 8.45173 78.7792
984 1 8.43806 8.90754 76.6347
1101 1 23.1721 19.2631 76.127
1111 1 11.087 23.8672 77.9465
1099 1 17.1446 19.5709 76.9071
1060 1 26.4472 8.27478 77.9181
1062 1 31.1795 8.10929 78.4909
996 1 1.48553 12.5566 78.262
998 1 7.39069 12.7879 77.1825
1086 1 20.8706 17.3488 79.0998
1071 1 17.07 10.5486 77.4421
847 1 14.0711 5.99781 64.0313
1073 1 22.6523 9.97819 76.2356
1074 1 26.4451 12.7202 78.0469
1088 1 26.9859 17.1775 78.09
1076 1 30.9535 12.6046 78.69
1010 1 1.25884 17.1884 78.1829
1012 1 7.30306 17.4506 77.0153
1083 1 11.3317 15.136 78.3083
1085 1 16.9564 14.9977 77.8449
1087 1 23.2617 14.8349 76.1484
1091 1 33.5603 15.3938 75.9611
1097 1 10.9882 19.8074 78.3611
1028 1 14.4658 21.6212 75.9458
851 1 26.16 5.80355 61.4161
773 1 2.18838 6.10118 60.8456