ITEM: TIMESTEP
398000
ITEM: NUMBER OF ATOMS
16000
ITEM: BOX BOUNDS pp pp pp
4.0540145659377202e-01 1.0179459854340885e+02
5.7254119242513966e+00 9.6474588075741764e+01
-5.1899417598542428e+00 1.0738994175985238e+02
ITEM: ATOMS id type x y z
289 1 20.0549 6.39015 18.2428
6 1 14.8994 7.87294 -4.6148
8 1 19.6358 8.30744 -4.25329
10 1 23.9753 8.14202 -3.15672
12 1 28.6433 8.31842 -2.70104
14 1 32.9088 8.19724 -2.08658
85 1 4.43428 10.3801 -2.67455
87 1 8.49701 10.4089 -2.4261
283 1 6.27361 6.18425 16.2231
89 1 12.3247 10.4311 -2.74275
22 1 19.3549 12.989 -3.91122
24 1 23.8574 12.7331 -3.04514
26 1 28.278 12.7059 -2.48309
28 1 32.7369 12.0195 -2.67934
99 1 3.20516 14.6892 -3.01591
101 1 7.73794 15.1296 -2.75349
103 1 12.5114 15.0615 -2.0934
34 1 14.5042 17.5067 -4.70963
36 1 19.1897 17.5471 -4.15265
113 1 3.93836 19.3617 -2.77751
115 1 8.34817 19.5099 -2.15917
38 1 24.7282 17.1501 -3.45127
40 1 28.7077 16.687 -2.16881
42 1 32.4198 16.691 -1.97202
127 1 3.84797 24.7013 -3.81418
129 1 8.07782 23.4578 -2.20793
10943 1 0.684892 7.79345 6.13341
48 1 14.9783 21.8327 -5.2622
131 1 12.6546 24.0528 -1.9126
50 1 19.1833 21.7006 -3.67326
52 1 24.1512 21.2338 -3.60345
54 1 28.5914 21.4693 -2.34981
62 1 14.6072 26.4496 -4.81844
285 1 11.2588 5.94519 17.2275
64 1 19.5245 26.3378 -3.79658
66 1 23.9467 25.8546 -3.64008
68 1 28.9339 26.0875 -2.57537
70 1 33.2238 25.6718 -1.90649
10878 1 1.16161 7.93132 0.0877697
72 1 5.95991 7.85846 0.437158
74 1 10.393 8.3473 0.773465
76 1 14.3665 7.97976 1.76349
10891 1 1.01309 12.5562 0.0412253
86 1 5.4182 12.4727 0.427841
88 1 9.90505 13.1652 0.980541
90 1 13.9664 12.7268 1.84569
91 1 16.7009 10.3067 -0.99658
93 1 21.2138 10.5339 -0.165166
95 1 25.7929 10.2383 0.440057
97 1 30.6049 9.92059 1.11075
10904 1 1.18924 17.6239 0.196314
102 1 9.65713 17.1242 1.11605
104 1 14.4785 17.2853 1.46043
105 1 16.5872 15.0453 -1.15797
107 1 21.7385 15.0728 -0.341297
109 1 25.4935 14.8505 0.673461
111 1 30.1719 14.5854 0.462242
100 1 4.9674 16.8033 0.767023
117 1 12.3773 19.4397 -2.02302
119 1 16.874 19.7085 -1.47415
121 1 21.5817 19.0245 -0.681957
123 1 26.257 19.5331 0.287388
125 1 30.5095 19.2002 1.23948
10917 1 1.12353 22.1548 -0.69628
114 1 5.09812 21.1307 0.655287
116 1 9.83857 21.3127 0.948755
118 1 14.3895 21.916 1.91035
133 1 16.8183 24.3384 -1.5976
135 1 21.2706 23.7644 -0.714049
137 1 26.157 24.1277 0.132919
56 1 33.068 21.6932 -1.83585
139 1 30.2195 23.9059 1.27419
10930 1 1.07264 26.1115 -0.0669175
128 1 5.38844 26.0247 0.48999
130 1 9.84709 26.0385 1.15868
132 1 14.4028 26.4257 1.98046
79 1 21.5524 5.78678 -0.664241
75 1 12.3999 5.82269 -2.40336
7096 1 33.7588 27.7822 13.3116
5848 1 33.4875 23.2838 13.6095
5835 1 33.1141 19.2754 13.5538
287 1 14.9562 6.05273 17.364
78 1 18.9584 8.01703 1.83094
80 1 23.0268 7.84648 2.85522
82 1 27.7142 7.7715 3.85508
84 1 33.0152 7.45956 4.22815
155 1 2.81031 10.3244 3.39116
157 1 7.45247 10.3083 3.46668
159 1 11.8971 10.7703 4.50793
161 1 16.5822 10.0791 5.23805
92 1 18.3797 13.0255 2.21181
94 1 23.3814 12.0808 3.47449
96 1 27.8193 12.2762 3.75226
98 1 32.7351 12.268 3.98284
169 1 2.96143 15.1045 3.54172
171 1 7.08295 14.1405 4.07317
173 1 11.7484 14.8075 4.58398
175 1 16.274 14.7831 4.95628
106 1 18.6236 17.5421 2.20384
108 1 23.3907 17.4109 3.49528
110 1 27.32 16.5435 3.69017
183 1 2.5928 19.7091 3.19795
185 1 7.13825 19.3335 4.24675
187 1 11.8539 19.124 4.64502
189 1 15.7194 19.2617 5.24633
112 1 32.0514 16.6794 4.22179
197 1 2.16151 23.9995 3.52107
199 1 6.94797 23.6784 3.71302
201 1 11.8565 23.7698 4.59715
203 1 16.2959 23.7966 5.38619
120 1 18.3214 21.41 1.94836
205 1 20.8959 24.0338 5.85287
122 1 23.5377 21.8027 2.84199
124 1 27.944 22.0385 3.8755
126 1 32.5078 21.422 4.77448
83 1 30.7169 6.11835 1.11571
381 1 5.06371 15.1525 22.3595
71 1 3.90053 5.70669 -3.15566
134 1 18.6351 26.0375 2.37193
411 1 9.68246 23.5367 23.0194
136 1 23.5212 26.124 2.7042
138 1 28.3152 26.4997 3.30742
140 1 32.7323 25.9697 4.52322
1615 1 11.4484 28.3467 10.3887
142 1 5.02756 7.79557 6.69079
144 1 9.70039 8.08176 7.12666
146 1 14.1112 7.93255 7.65337
148 1 18.7965 8.09002 8.47207
1623 1 29.3119 28.09 12.7543
1475 1 12.8339 28.1306 -1.65499
156 1 4.61149 12.2846 6.67337
158 1 9.21393 11.992 7.6667
160 1 13.6587 12.5769 7.09165
162 1 18.3413 12.0652 8.05421
163 1 20.9188 10.1452 5.71935
165 1 25.4509 9.87253 6.32342
167 1 30.2182 9.94948 7.07564
174 1 13.803 17.2803 8.16503
176 1 17.6571 16.951 8.69181
177 1 20.8744 15.1055 5.65751
179 1 25.5503 14.6156 7.00794
181 1 30.1954 14.0293 7.31517
1693 1 29.1127 27.7654 19.4363
170 1 4.62381 17.0029 6.56509
172 1 9.21536 16.6246 7.55412
191 1 20.3439 19.6675 5.89232
178 1 22.2644 17.1779 9.42049
193 1 25.0012 19.338 6.54545
195 1 29.8436 18.8491 6.55804
184 1 4.66846 21.7341 6.82758
186 1 9.20291 21.3085 7.3393
188 1 13.5872 21.3938 8.20637
190 1 18.1283 21.8408 8.32084
207 1 24.8307 23.2997 6.70462
209 1 29.3242 24.1021 7.07299
334 1 26.3711 21.8979 22.6535
198 1 5.05849 25.8696 6.49524
200 1 9.18514 25.7725 7.08742
202 1 13.7877 26.0303 8.19039
204 1 18.3934 26.0817 8.28984
206 1 23.0436 25.7891 9.26009
292 1 26.0765 7.93232 21.5736
365 1 0.882467 10.566 22.408
5913 1 33.6792 23.5366 19.5891
213 1 6.89354 5.88928 10.3006
219 1 20.4104 6.18119 11.3604
1687 1 15.2392 28.4034 18.1415
150 1 22.7712 8.16692 8.85461
152 1 27.1871 7.61259 10.0556
154 1 31.8802 7.84772 11.0936
225 1 2.41362 9.96996 9.70426
227 1 6.71689 10.2778 10.2718
229 1 11.2643 10.3823 10.5489
231 1 15.8481 10.6426 10.9142
233 1 20.4339 10.8615 11.7223
164 1 22.694 12.8829 9.09073
166 1 27.4465 12.333 9.84525
168 1 31.4327 12.0782 11.2344
239 1 2.38186 14.7669 10.0019
241 1 6.90981 14.6561 9.88412
243 1 11.5243 14.3334 10.8322
245 1 16.166 14.5352 11.3337
182 1 31.8216 16.5924 10.0242
253 1 2.21864 19.3464 9.82336
255 1 6.26864 19.24 10.2807
257 1 10.8594 19.0413 10.8153
259 1 15.4932 19.3545 11.1217
261 1 20.3117 19.5276 11.8918
263 1 24.4783 19.186 13.0284
180 1 27.6523 16.7743 9.42102
267 1 2.46185 24.0589 9.40269
269 1 6.81654 23.9474 10.33
271 1 11.2568 23.6422 10.8259
273 1 16.3309 23.8306 11.2739
275 1 20.6275 24.3229 11.7893
192 1 22.5461 21.666 9.49718
194 1 27.2773 21.3884 10.1855
196 1 32.1642 21.3707 9.65479
1483 1 30.9794 28.281 0.208558
141 1 3.11184 5.68267 2.89188
1691 1 24.5745 28.1542 19.2549
1619 1 20.4967 28.3594 11.9574
332 1 21.8683 21.3233 21.7027
208 1 27.3169 25.503 9.95392
210 1 31.9083 25.8849 10.437
212 1 4.11608 7.613 13.1963
214 1 9.3475 8.38616 13.6372
216 1 13.6824 7.93001 14.0118
218 1 17.9092 8.44 14.5004
220 1 22.2671 8.12986 15.2373
226 1 3.86337 12.4181 13.0274
228 1 8.52747 12.1688 13.8675
230 1 13.1033 12.6908 13.9027
232 1 17.7184 12.3146 15.057
234 1 22.1109 12.28 15.5444
235 1 24.305 9.98263 12.1841
237 1 28.8132 9.76693 13.7091
395 1 5.74112 19.1179 22.6878
240 1 4.37337 17.2568 12.8997
244 1 12.9824 16.6543 14.0756
246 1 17.5839 16.9601 14.6693
247 1 20.184 14.6724 11.7642
249 1 24.7621 14.5683 12.3459
251 1 29.3199 14.68 13.2727
5822 1 34.2208 14.6981 13.8762
323 1 1.41919 19.2077 15.7291
242 1 8.30902 16.5335 13.4387
248 1 21.6144 17.1367 15.3217
265 1 29.2988 19.0899 12.6865
330 1 17.1887 21.4709 21.1345
337 1 1.61854 23.7416 16.0794
254 1 4.2501 21.982 13.3234
256 1 8.85935 21.0861 13.539
258 1 13.5423 21.3147 14.0277
260 1 18.1086 21.4121 14.3911
262 1 22.01 21.764 15.2456
277 1 24.6473 23.6217 13.1595
279 1 28.9559 23.3687 13.2398
1473 1 8.06941 27.9436 -1.9229
268 1 4.15409 26.4449 13.1384
270 1 8.68337 26.4741 13.6759
272 1 13.1665 25.8717 14.0889
274 1 18.0406 26.1134 15.0086
276 1 22.6025 26.4298 15.3393
348 1 26.7022 26.0056 21.946
353 1 5.65486 6.15105 22.4125
7161 1 32.8473 28.2102 20.0434
20 1 14.9443 12.7689 -4.5433
340 1 8.24641 25.3987 19.8727
346 1 22.068 25.9693 21.2261
328 1 12.6734 21.5951 20.1043
222 1 26.6 7.52922 16.1092
224 1 31.5701 7.56307 17.005
295 1 1.51102 10.1711 16.2037
296 1 3.59401 12.3672 19.878
297 1 6.23614 10.1967 16.654
299 1 10.8778 10.5664 17.1964
301 1 15.4088 10.7672 17.4798
303 1 19.8592 10.4089 18.3879
305 1 24.3887 9.9403 19.0786
236 1 26.6732 12.7188 16.5722
307 1 28.5144 10.2235 19.1217
238 1 31.3929 12.3588 16.7085
309 1 1.59168 14.7838 16.6615
311 1 5.91281 14.0798 16.8326
313 1 10.5516 14.725 17.4196
315 1 14.441 15.2954 17.442
317 1 19.1665 15.1085 17.8736
319 1 23.8699 14.4604 18.3472
250 1 27.0173 16.5118 15.7358
321 1 29.0641 14.8775 19.7615
252 1 31.4291 16.5191 16.9234
310 1 3.35591 17.1327 19.1479
325 1 6.20762 18.9031 15.9129
327 1 10.8249 18.5593 16.8187
329 1 15.0849 19.3201 17.2089
331 1 19.7175 19.1632 18.0984
333 1 24.1785 18.3054 19.0051
324 1 3.73571 21.5776 19.2601
339 1 6.4603 23.9578 15.9715
341 1 11.0846 23.6909 16.6092
343 1 15.6629 23.7469 17.334
345 1 19.9716 23.4245 18.3059
347 1 24.6182 23.537 18.7474
264 1 26.9015 21.1407 16.3341
266 1 31.5209 21.2292 16.3998
336 1 30.9135 21.0418 22.8195
349 1 28.979 23.7386 19.3499
278 1 27.0195 26.233 15.6692
280 1 31.684 26.0349 16.0863
282 1 3.83781 8.09799 19.6782
342 1 12.9411 26.1339 20.3606
1471 1 3.67682 28.2809 -3.17739
284 1 8.44891 8.62852 19.6452
286 1 12.6911 8.46414 20.747
288 1 17.1725 8.73631 21.0394
290 1 21.7655 8.4758 21.1762
338 1 3.45683 26.1316 18.915
409 1 5.4538 23.6136 22.3027
344 1 16.9617 26.0938 21.0583
5770 1 33.5789 18.3255 7.08653
77 1 16.9952 6.04955 -1.70402
298 1 8.09733 13.1442 20.9816
300 1 12.7086 12.9196 20.81
302 1 17.1762 12.6482 21.1989
304 1 21.9239 12.9965 21.0106
306 1 26.1608 12.5047 22.4122
5874 1 32.8163 10.1755 20.1503
308 1 30.6919 12.804 22.9345
379 1 1.25387 15.2595 22.685
1543 1 6.99524 28.3273 3.45787
314 1 12.4009 16.877 20.3575
318 1 21.4722 16.6903 21.6873
351 1 1.07286 6.17921 22.5163
5887 1 33.7164 15.0921 20.0997
393 1 1.24743 19.343 22.7012
1685 1 11.0202 28.2653 17.2526
312 1 7.72275 17.1822 20.068
316 1 16.819 17.4716 21.1413
320 1 26.0131 17.2751 22.5031
335 1 29.0839 18.8192 19.1739
5900 1 33.0394 18.9553 20.2718
407 1 0.951069 23.2125 21.398
1621 1 24.9366 28.2434 12.7182
326 1 8.36498 21.0192 19.4229
1551 1 25.0629 28.0214 6.54592
1689 1 19.9204 28.1061 18.6568
1753 1 5.69565 28.2634 22.5926
1611 1 2.18781 28.2685 9.42938
1613 1 6.76656 28.653 10.033
1681 1 1.75551 28.4946 16.1418
69 1 31.6217 23.601 -4.8028
13 1 30.9416 5.88341 -5.08461
352 1 2.96199 8.14706 26.1783
354 1 7.65452 8.02903 26.3861
449 1 0.41857 14.9825 28.984
499 1 18.2215 5.86544 37.3963
363 1 28.1039 6.04114 25.4058
477 1 0.643796 23.885 28.2395
639 1 16.7853 5.71934 49.5503
366 1 3.16834 12.5642 26.0272
368 1 7.91457 12.7383 26.0727
369 1 9.94185 10.5845 23.5803
371 1 14.4182 10.6065 24.3594
373 1 19.4663 10.8095 24.31
375 1 23.9983 10.3376 24.3915
377 1 28.4786 10.5715 25.3695
5939 1 33.1316 10.4326 26.299
383 1 10.0386 15.3655 23.708
385 1 14.9948 15.3172 24.1032
387 1 19.3979 15.0543 24.3249
389 1 23.9278 15.0283 24.6062
391 1 28.5202 14.7025 25.7612
5952 1 32.7662 14.6902 26.5567
380 1 3.09237 17.3707 25.8174
382 1 7.69123 16.9291 26.4039
397 1 10.0801 19.3438 23.4812
399 1 14.797 19.7712 24.2148
401 1 19.3479 19.6508 24.6473
403 1 23.9457 19.4419 24.6404
405 1 28.5148 19.2821 25.7532
5965 1 32.9751 19.1588 26.5239
394 1 3.21821 22.0058 26.01
396 1 7.27268 21.7926 26.3598
413 1 14.2507 23.9225 23.7735
415 1 19.2478 23.5863 24.2148
417 1 23.5927 24.2962 25.1347
419 1 28.4189 23.8132 25.6801
5978 1 32.8307 23.9813 26.993
408 1 2.68701 25.6105 25.3956
410 1 7.3405 26.1086 25.5772
463 1 0.816611 19.5247 28.3159
423 1 4.89889 5.8871 29.2172
356 1 12.2143 8.11656 26.5424
358 1 16.411 8.31357 26.9329
360 1 21.4352 8.61047 27.3398
362 1 25.5416 8.47158 28.2746
364 1 29.9734 8.58602 29.284
5926 1 32.9914 5.85379 26.6949
437 1 5.25912 10.4099 29.2695
439 1 9.25707 10.0968 29.798
370 1 12.3653 12.4466 26.981
372 1 17.0424 13.1041 27.3983
374 1 21.0051 13.328 27.6288
376 1 25.3818 12.577 28.298
378 1 30.3934 12.5946 28.8306
501 1 22.8535 6.04647 37.3708
451 1 5.07532 15.1709 29.3261
453 1 9.59376 14.6848 30.0613
386 1 16.659 17.4555 27.4906
392 1 30.1295 17.1473 29.5332
2037 1 12.6208 28.3575 48.9273
465 1 4.95446 19.885 28.8315
467 1 9.63557 19.4278 29.7671
384 1 11.9097 17.2169 27.0859
388 1 21.2123 17.3623 27.8021
390 1 25.7039 17.1227 28.3726
700 1 32.3543 26.3631 49.1215
427 1 14.5552 5.93731 29.6818
479 1 5.22391 24.7267 29.1573
481 1 9.72335 24.1649 29.2769
398 1 11.9543 22.5742 26.5157
483 1 13.4472 24.732 30.3796
400 1 16.5236 22.2728 27.6907
402 1 21.2962 21.8421 27.3656
404 1 26.0079 21.8516 27.9188
406 1 30.9261 21.8205 29.7993
686 1 32.5328 21.8547 48.5716
412 1 11.9743 26.5773 26.626
414 1 16.7218 26.0503 27.0226
416 1 20.8521 26.0474 26.9913
418 1 26.1214 26.6045 28.3214
420 1 29.8702 26.494 29.4265
422 1 2.56556 8.35515 32.4399
424 1 7.02386 7.94791 32.901
426 1 11.7675 8.19277 33.3149
428 1 16.4678 8.28538 33.4546
684 1 26.4807 21.1593 50.0153
436 1 2.43463 12.6219 31.7256
438 1 7.15293 12.6821 32.0356
441 1 14.5882 10.7052 30.6204
443 1 19.0395 10.6152 30.8088
444 1 21.1194 13.0347 34.1566
445 1 23.6994 10.355 31.1565
447 1 27.6624 10.4238 31.9661
6004 1 32.0946 9.99043 32.5806
450 1 2.0811 17.361 31.8124
455 1 14.0232 14.9672 30.41
457 1 19.1037 15.201 30.6642
459 1 23.0472 15.081 30.9838
461 1 27.6903 14.9692 31.8719
6017 1 31.5499 14.6305 32.162
452 1 6.87224 17.162 32.3207
469 1 14.0919 19.8643 29.9587
454 1 11.5655 17.3085 32.6601
471 1 18.7209 19.6573 30.6454
473 1 22.9052 19.4167 31.086
475 1 27.3425 19.4769 31.904
6030 1 31.8962 19.2713 33.1102
464 1 2.78251 21.7033 31.7527
466 1 7.25585 21.892 32.4327
468 1 11.9178 21.4122 33.298
485 1 19.4195 23.9455 30.9695
470 1 15.918 22.1248 33.4868
487 1 23.4501 24.0101 30.9831
489 1 27.8089 23.7998 31.8636
6043 1 31.7308 24.3826 32.7611
478 1 2.73536 26.3685 31.5048
480 1 7.04861 26.4105 32.2712
482 1 11.641 25.9799 33.1845
322 1 31.5906 16.4923 23.0508
697 1 22.9188 24.0719 48.4419
648 1 5.47543 12.7243 50.8723
698 1 26.8367 26.1455 49.7719
696 1 20.6589 26.1168 50.9541
695 1 17.1096 24.3196 48.9802
693 1 12.7686 24.4594 48.9855
430 1 20.5356 7.83318 33.884
432 1 25.2599 8.43436 34.2307
434 1 29.4108 7.67472 35.3112
507 1 4.42349 10.6941 35.2506
440 1 11.6784 12.7428 33.7849
509 1 9.02715 10.5422 36.1215
511 1 12.8073 10.5546 37.376
442 1 16.3218 12.8132 33.8813
446 1 25.6747 12.9625 34.477
448 1 29.3186 12.5958 35.5611
6160 1 34.1315 20.2979 41.6149
521 1 4.63643 15.3165 34.9956
523 1 9.22851 15.4111 35.9252
525 1 13.7927 14.8063 36.2099
456 1 16.229 17.6354 33.3995
460 1 25.0678 16.734 34.7551
535 1 4.43122 20.0797 34.8102
537 1 8.94988 19.8146 35.7769
539 1 13.4515 19.4967 36.5692
458 1 20.7912 17.7045 34.482
462 1 29.8794 16.8795 35.6376
435 1 0.356239 10.2606 28.6353
549 1 4.45879 24.0325 35.3794
551 1 8.79789 24.0313 35.3121
553 1 13.122 24.3673 36.557
472 1 20.4942 21.4826 34.6296
474 1 24.7619 21.6062 34.7515
476 1 29.2763 21.6397 35.8548
367 1 5.2202 10.5865 23.1389
484 1 16.2879 26.1507 33.5159
2033 1 3.57978 28.1768 48.4359
486 1 20.7876 26.2108 34.0156
488 1 25.3849 25.9001 34.9721
490 1 29.1968 26.1783 36.2219
492 1 1.92945 8.3553 38.3072
494 1 6.65639 8.04129 38.7496
496 1 10.9366 7.71899 40.0298
569 1 17.3898 5.8036 43.0243
498 1 15.4314 8.19276 40.3993
502 1 24.8533 8.00112 40.7611
497 1 13.7857 6.26961 36.5545
504 1 30.6034 8.28515 39.8844
506 1 2.11903 12.7462 38.0282
508 1 6.46472 12.8044 38.6704
510 1 10.222 12.4794 39.4858
512 1 14.8736 12.6334 39.9524
513 1 18.5894 10.4722 37.1401
515 1 22.5628 10.4985 37.7334
517 1 26.8758 10.4885 38.2193
6069 1 33.3531 10.149 36.5908
518 1 30.4445 12.6198 40.6618
526 1 15.4981 17.1649 39.7003
527 1 17.7937 15.0801 36.78
529 1 23.1136 15.0992 37.8809
531 1 27.5618 14.9944 38.4229
6082 1 32.8453 14.601 37.3621
520 1 2.39578 17.5746 38.2395
522 1 6.44604 17.0843 38.6271
524 1 10.8957 17.0642 38.8319
541 1 17.4352 19.9445 37.3701
543 1 23.2208 19.9178 37.7269
545 1 27.0411 19.6298 38.0658
6095 1 32.978 19.6762 36.9465
532 1 31.3511 17.1891 40.0826
534 1 2.00503 22.205 38.3627
536 1 6.76165 21.6405 38.5949
538 1 10.4497 21.7888 39.2776
540 1 15.2684 21.6518 40.0376
555 1 18.7873 24.3962 37.6351
542 1 19.8939 21.93 40.605
557 1 22.587 24.3119 37.8614
559 1 26.4745 23.9933 38.5959
6108 1 32.8227 24.0471 37.1068
546 1 30.4927 22.1587 39.9927
548 1 1.26018 25.9987 38.0266
550 1 6.49009 26.4183 39.0476
552 1 10.8069 25.6709 39.3998
554 1 15.4822 26.2981 39.4853
556 1 19.5199 26.4588 40.8655
691 1 8.37514 23.9765 48.6923
560 1 30.6489 25.9752 40.0319
633 1 3.7086 5.98088 48.1655
503 1 27.1892 5.65978 38.7247
500 1 20.2218 8.29091 40.7879
577 1 3.95443 10.4713 41.7132
579 1 8.27179 10.6129 41.6745
581 1 12.7245 10.9365 42.8711
583 1 17.367 10.4761 42.8688
514 1 20.4158 12.7441 40.0499
516 1 24.8805 12.6233 41.4926
587 1 28.4824 10.0316 42.5215
1823 1 4.70508 28.3898 28.5767
591 1 3.52556 14.4607 41.1217
593 1 8.19476 15.0406 42.2722
595 1 12.31 15.0771 42.7671
597 1 16.9617 14.7756 43.4438
599 1 21.7411 14.9796 43.783
601 1 28.2143 14.3917 43.1902
429 1 18.6618 6.28451 30.212
605 1 4.36007 20.1095 41.2837
607 1 8.85409 19.5747 41.9489
609 1 12.6124 19.3676 42.6119
611 1 17.6018 19.366 43.3083
528 1 20.2321 17.103 39.853
530 1 24.7962 17.3461 41.2855
615 1 28.0907 19.6963 42.3636
641 1 22.9871 5.85781 48.0257
619 1 4.06538 23.8937 41.6773
621 1 8.44656 23.5559 42.1095
623 1 13.0109 24.4088 42.019
625 1 17.7314 23.7549 42.9712
544 1 24.1258 21.4883 41.4843
629 1 27.8579 24.4308 42.7912
688 1 1.08276 26.3164 50.6522
558 1 24.4392 27.0998 41.1946
562 1 1.78321 8.2179 44.5568
564 1 6.61523 8.09879 45.1761
566 1 10.7848 8.19829 44.7925
568 1 14.714 8.02594 46.0731
570 1 19.197 7.98419 46.4857
572 1 25.6473 7.94934 45.2557
574 1 32.2265 7.43058 44.0534
576 1 0.833504 12.6624 44.0375
580 1 9.99444 12.4376 45.7192
582 1 14.374 12.6282 46.0157
585 1 21.9599 10.3865 43.7409
586 1 25.5264 12.5867 45.2042
657 1 29.6551 9.75032 47.0475
588 1 32.2956 12.2426 44.0311
590 1 1.23374 17.3664 43.4731
578 1 5.3692 12.6 44.8151
596 1 14.7384 17.2703 46.1484
584 1 19.5665 12.3116 46.4271
671 1 29.4403 14.8307 46.8315
592 1 5.78499 17.3029 44.3015
594 1 10.1325 17.3192 45.9928
613 1 21.9052 19.3153 43.8618
598 1 19.2367 17.7989 46.5702
600 1 25.5674 17.3186 45.4611
602 1 31.7977 16.6759 44.7181
604 1 1.78649 20.9704 44.4491
606 1 6.38951 21.9335 45.1071
608 1 11.1742 21.7649 45.5156
610 1 14.9711 21.8396 46.3419
612 1 19.5405 22.4801 46.159
614 1 25.6361 21.6332 45.9534
699 1 28.9425 23.9105 47.3438
616 1 31.5047 22.5908 44.7477
618 1 1.56431 26.5083 44.5833
620 1 6.11804 25.9508 45.2254
622 1 10.8079 26.2031 45.9725
624 1 15.0633 26.5737 45.3903
627 1 22.3849 24.1441 43.7762
626 1 19.9457 26.3566 47.1812
628 1 25.5436 26.6304 45.7051
689 1 3.74197 24.0704 47.8468
630 1 31.4058 26.7932 44.6273
632 1 1.20257 8.15587 50.1796
674 1 1.00897 21.7963 50.8437
5979 1 34.3122 26.8924 29.7345
637 1 12.1036 6.04624 48.6949
642 1 26.7702 8.14495 49.8104
644 1 33.2897 7.58095 48.7596
647 1 3.41769 10.7002 47.3561
646 1 1.13648 12.5889 50.9701
649 1 8.02114 9.97413 48.2503
651 1 12.4786 10.4945 49.219
653 1 17.2367 10.4075 49.6664
355 1 9.78219 6.4894 23.3459
655 1 23.1339 10.4355 48.4093
656 1 26.9591 12.6542 49.606
658 1 33.1394 12.4039 48.511
661 1 3.30569 15.304 47.8762
663 1 7.69035 14.7099 48.3362
665 1 12.3268 15.1688 48.7636
667 1 16.9685 15.153 49.0133
669 1 23.8773 15.1987 48.8184
672 1 33.2829 17.1439 48.4964
660 1 0.934512 17.3079 50.4188
675 1 4.16328 19.6977 48.044
677 1 8.61989 19.9256 49.4937
679 1 12.5525 19.6683 49.232
681 1 17.1001 19.8204 49.0082
670 1 27.219 17.2139 49.4229
683 1 23.0583 19.755 48.3539
685 1 29.2216 19.32 46.6152
1755 1 9.68307 28.292 22.9725
643 1 29.4864 5.71466 47.157
1759 1 18.8148 28.0721 24.043
1833 1 27.705 28.6254 31.8551
1901 1 22.5212 28.1023 37.944
1761 1 23.4847 28.3071 24.9757
359 1 19.1052 6.12063 24.4581
634 1 5.03851 8.18405 51.4061
433 1 27.4379 5.85957 32.1541
1831 1 22.9673 28.3006 31.3353
640 1 20.2009 8.03823 51.1056
1757 1 14.3909 28.5029 23.6104
1965 1 8.27362 28.3188 42.0809
425 1 9.69614 6.03278 29.7757
1763 1 28.1956 28.4529 25.6029
1967 1 12.9569 28.5473 42.3743
1895 1 8.62407 27.8848 36.181
361 1 23.7746 5.9389 24.2871
565 1 8.46426 5.7406 42.1996
431 1 23.0713 5.87071 31.1178
567 1 12.9433 5.4565 42.6999
493 1 4.46489 5.9881 35.406
654 1 20.1318 12.759 50.5629
350 1 30.8564 25.6219 23.2883
294 1 30.7394 7.98159 23.1756
1091 1 33.991 14.1878 76.1274
705 1 7.45942 5.92967 54.6584
636 1 10.0718 8.57438 51.7571
638 1 14.2493 7.47776 52.1225
676 1 5.30681 22.0769 51.8065
847 1 13.5777 6.03694 64.6743
712 1 27.4526 7.9616 54.3889
1104 1 31.8514 21.4415 79.0495
717 1 3.08851 10.6909 54.0047
926 1 0.541785 12.3105 73.6465
650 1 9.98912 13.4111 51.9401
652 1 14.6594 13.0837 52.4159
725 1 24.486 10.2079 52.1876
727 1 30.3189 9.98808 51.5013
726 1 27.6957 11.8407 54.2032
728 1 34.0899 12.4727 53.1379
731 1 3.00545 15.0285 54.4775
666 1 14.837 16.8665 52.069
737 1 18.7086 14.9559 54.0641
739 1 24.7556 14.0709 52.692
741 1 30.7984 13.9341 51.0758
745 1 3.44674 19.2973 53.9936
919 1 21 5.93429 67.258
747 1 7.66975 20.2823 54.7359
664 1 10.3186 17.8861 52.1733
751 1 18.0471 19.6124 54.374
845 1 7.66686 6.50148 65.9475
753 1 24.5106 18.7748 52.7491
755 1 29.4831 19.7178 51.4343
742 1 32.8153 17.1209 53.1839
759 1 2.62359 24.0944 54.2637
985 1 10.2888 5.82545 74.0365
678 1 10.4373 22.3972 52.4081
680 1 14.8802 22.6104 52.7734
662 1 5.63365 17.4143 51.5539
767 1 24.0949 23.6326 53.1018
769 1 29.7967 23.7376 51.8223
756 1 33.4124 21.3584 53.1843
709 1 17.6805 5.91061 54.2293
1061 1 29.8386 5.89603 75.2381
692 1 10.3467 26.8449 51.7432
694 1 14.9535 26.6803 52.6163
765 1 17.9259 24.83 53.4803
682 1 20.5942 21.83 51.2044
768 1 27.712 26.1893 54.4328
770 1 33.1754 26.127 53.5302
1086 1 21.3541 17.1895 79.0089
704 1 4.86246 7.6571 56.9261
706 1 9.49868 8.43065 57.9112
708 1 15.7599 8.48145 56.4446
710 1 21.6507 7.9823 55.8065
690 1 5.81877 25.9557 51.5182
718 1 4.64074 12.1871 57.9335
719 1 7.4809 10.5861 54.3642
720 1 9.1393 12.9838 57.6238
721 1 11.9541 10.3623 55.1754
723 1 18.2267 10.4933 54.0356
722 1 16.0768 12.2383 56.9813
724 1 21.4975 12.6807 55.6684
795 1 25.2881 10.2285 56.7199
797 1 31.1268 9.99704 56.0536
733 1 7.23925 15.12 54.5357
732 1 4.87743 17.2444 57.334
735 1 12.4452 15.0187 55.0504
736 1 15.4043 16.8784 56.9416
809 1 25.4364 14.7097 56.7527
740 1 28.2959 16.9814 53.935
811 1 30.9317 14.5209 55.9194
749 1 12.3166 19.6017 55.0887
738 1 21.744 17.0268 55.675
823 1 25.4896 19.2979 57.09
825 1 31.6893 19.3999 56.3588
937 1 33.4464 10.2819 64.8695
761 1 7.71996 24.725 55.6447
746 1 4.6133 22.0478 57.5568
748 1 9.64344 21.6176 58.4281
763 1 12.1944 24.2169 55.4087
750 1 15.2907 21.7417 56.5289
752 1 22.1672 21.3247 55.6831
837 1 25.5197 23.9909 57.1603
754 1 27.6319 21.5323 54.8031
839 1 31.1344 23.3546 56.8795
1100 1 20.8994 21.6442 79.2213
760 1 4.92692 26.4643 57.5871
762 1 9.46018 26.2931 58.5356
764 1 16.0596 26.2064 56.7214
777 1 12.8117 6.0012 59.7167
766 1 21.2629 25.8882 55.612
744 1 0.297974 22.2039 57.0794
778 1 16.4706 7.89818 60.1784
780 1 22.2177 8.21142 59.7764
782 1 28.9605 7.92402 58.737
1040 1 7.75723 26.1473 77.4633
787 1 1.97851 10.4609 60.5993
789 1 6.68483 10.3606 60.7973
791 1 12.6732 10.5219 59.5584
792 1 15.998 12.4036 61.1266
793 1 18.8566 10.3583 58.6912
794 1 22.6649 12.3512 59.3497
796 1 28.843 12.3095 58.7726
867 1 32.2379 9.83238 60.573
801 1 2.85251 15.3143 60.5153
803 1 7.17366 15.1734 60.4199
734 1 9.4506 17.469 57.8412
805 1 12.9266 14.5512 59.4206
807 1 19.3893 15.004 58.5965
808 1 22.4818 17.0606 59.903
881 1 32.7314 14.4979 60.3498
815 1 2.60633 19.8744 60.4422
817 1 6.98523 19.6759 60.6557
819 1 12.9112 19.3711 59.8208
821 1 18.937 19.4547 58.2537
806 1 16.7399 17.0007 60.8055
810 1 28.945 16.5938 58.7379
895 1 32.4262 18.9805 60.9914
829 1 2.58807 24.0878 60.652
831 1 6.43427 23.7137 61.1497
833 1 13.1315 24.0806 59.9243
835 1 18.9601 23.5121 58.6786
820 1 16.4664 21.5898 61.6768
822 1 22.4046 21.6234 60.5646
824 1 28.525 21.2596 59.5763
909 1 31.851 23.5602 60.5237
2253 1 32.2188 27.9556 60.063
1038 1 1.07316 25.9362 77.8708
834 1 17.2551 26.185 61.5882
2383 1 3.93573 28.3573 75.6468
836 1 22.8137 26.1185 60.0032
838 1 28.4134 25.4606 59.1666
774 1 4.13619 7.78954 63.6549
776 1 10.1691 8.20666 62.5644
1118 1 31.2264 26.2759 78.7103
850 1 23.7905 8.0174 64.2538
852 1 29.8083 7.85518 63.2943
788 1 4.41052 13.198 63.6636
790 1 10.4325 12.1173 61.9945
859 1 7.47835 10.5812 65.3698
861 1 14.1641 10.0688 63.9724
863 1 19.7316 10.0013 62.7651
865 1 26.5631 9.97699 61.1366
864 1 23.5821 12.1554 63.8813
866 1 29.6089 12.3547 63.4752
923 1 33.0176 6.32226 64.9817
804 1 10.278 16.8114 62.5152
875 1 14.3393 15.1978 64.4399
877 1 20.3004 14.602 62.8022
879 1 26.0591 14.7242 61.6993
878 1 23.8242 16.6778 64.5783
951 1 33.4828 14.3309 65.3106
802 1 4.41086 17.224 63.5995
887 1 8.46891 19.3981 66.0598
889 1 13.8511 19.8727 64.362
891 1 20.3234 19.1434 62.8126
893 1 25.8511 18.629 61.8379
880 1 29.8415 17.0518 63.4432
1033 1 33.8486 19.0994 65.3621
816 1 4.10595 22.0121 63.7015
818 1 10.4624 21.5711 63.01
903 1 13.8128 24.1109 64.3676
905 1 20.4772 23.7511 63.0699
892 1 23.6261 20.9961 64.2525
894 1 29.4081 21.5341 63.374
830 1 4.3109 26.7903 64.1235
2111 1 24.2083 28.3721 52.9926
832 1 10.4009 26.3555 63.0124
1119 1 33.9482 23.685 76.1216
907 1 25.7839 23.4062 62.0594
906 1 24.1133 26.316 64.5862
908 1 29.5026 25.6039 63.7898
2251 1 26.7808 27.8994 61.9375
1069 1 11.0028 10.9152 78.3731
1115 1 23.1238 23.8259 76.6794
846 1 11.3053 8.20145 66.9719
848 1 17.2509 8.34828 65.3336
1116 1 26.7483 26.11 78.3146
922 1 30.6359 7.91108 67.8412
857 1 1.51026 10.5135 66.3632
858 1 5.30001 12.8314 68.3673
860 1 11.7109 12.2068 66.499
862 1 17.5313 12.9022 65.5645
933 1 20.8444 10.0547 67.1752
935 1 26.9337 10.3977 65.9781
936 1 30.8832 12.7481 68.0503
871 1 1.76488 15.0257 67.0567
873 1 7.77651 14.8063 64.9923
874 1 11.424 16.9896 67.1327
945 1 14.6259 14.8445 69.0392
947 1 21.0891 14.7659 67.393
949 1 26.9953 14.4293 66.0978
950 1 30.869 17.114 67.986
885 1 1.79702 19.7738 66.5978
872 1 5.59372 17.5319 68.2952
876 1 17.6548 17.51 65.3209
959 1 15.0992 19.2969 68.7042
961 1 21.2339 19.4317 67.6252
963 1 27.278 18.9752 66.6301
899 1 1.97708 24.0297 66.563
886 1 5.4962 21.6554 68.2782
901 1 7.94164 24.1024 65.1986
888 1 11.5156 21.9116 67.1414
890 1 17.6796 22.1187 65.6929
975 1 21.7779 23.804 67.5306
977 1 26.9098 23.3988 66.8411
964 1 32.9976 23.1613 65.7561
1035 1 30.7204 20.9945 68.1221
758 1 0.60865 26.3409 56.9703
900 1 5.61062 26.3274 68.6321
902 1 11.5551 26.5146 66.8945
904 1 18.0475 26.0799 66.2552
978 1 30.3264 25.9558 68.4483
828 1 0.79966 26.3925 63.5181
844 1 5.17954 8.42157 68.1192
2455 1 11.0209 28.4441 78.6158
916 1 12.476 8.2017 71.439
918 1 18.8408 8.15853 70.0409
920 1 24.3862 8.41455 68.9088
927 1 3.17886 9.92638 70.9938
928 1 6.7701 12.5385 72.7592
929 1 8.93264 10.7725 69.997
931 1 15.6766 11.0841 68.2383
930 1 12.4568 12.3471 71.2231
932 1 18.878 12.7488 69.6961
1003 1 22.1334 10.4962 71.799
934 1 24.7164 12.5545 68.4313
1005 1 28.0832 9.95449 70.2542
1006 1 32.2388 12.6905 72.311
941 1 3.03767 14.6764 71.0359
943 1 8.86262 14.8328 69.034
944 1 12.624 17.015 72.1214
946 1 18.5633 16.7197 70.6026
1017 1 22.3197 15.0534 72.1298
1019 1 28.3366 14.2878 70.6904
955 1 2.79756 19.1979 71.1719
957 1 9.25894 19.6854 70.0953
1031 1 22.2852 19.505 71.9872
948 1 24.4871 17.4225 68.8698
1020 1 28.1055 18.8681 71.1558
969 1 2.93728 23.8775 71.5256
971 1 9.31463 24.0028 69.6186
958 1 12.7857 21.9412 72.0534
973 1 15.2213 23.9183 69.0996
960 1 18.4401 21.8739 70.1858
1045 1 22.0504 24.137 72.1671
962 1 24.3242 21.4533 69.1858
1047 1 28.2167 23.3625 70.633
1049 1 33.7859 23.9128 69.9821
972 1 13.0783 26.515 71.1242
974 1 18.923 26.3636 70.3578
2461 1 28.4514 28.1754 75.3697
976 1 25.5829 26.3281 69.0593
1113 1 17.4175 23.825 77.3368
912 1 0.663388 7.50611 73.676
914 1 6.71062 7.88258 72.9948
986 1 13.4251 8.17671 76.7647
2323 1 33.4599 27.7295 65.3942
988 1 19.3597 7.50523 74.6593
990 1 26.0276 7.92966 73.7605
992 1 32.2589 7.43344 72.136
1102 1 27.0039 21.5037 77.9632
1026 1 7.88739 21.4503 77.0578
997 1 4.19509 10.1338 75.223
999 1 10.3061 10.5969 74.5607
1001 1 15.7137 10.0121 72.9675
1002 1 20.3016 12.1608 74.7145
1004 1 25.9465 12.769 73.29
1075 1 29.3705 9.93225 74.7067
1011 1 4.09486 14.6385 75.5875
942 1 6.75814 16.6023 72.3699
1013 1 10.2049 14.8829 74.5294
1015 1 15.6436 14.6114 73.5328
1016 1 19.5288 16.7317 74.4471
1018 1 25.5413 16.7268 73.5694
1089 1 29.4286 15.0394 75.2713
716 1 0.426738 12.1162 57.0349
1025 1 3.96319 19.2978 75.2252
1027 1 10.2072 19.0177 74.5995
1014 1 13.9058 16.834 76.6068
1029 1 16.1239 19.3482 73.0813
1103 1 29.1779 19.37 75.5132
1022 1 31.9749 17.0329 71.8931
2183 1 31.0175 28.4144 56.4988
1039 1 4.21873 23.5463 75.5147
956 1 6.40964 21.5211 72.8626
1041 1 10.1072 23.8846 74.1657
1028 1 13.5302 21.6314 76.3642
1043 1 16.2132 24.1049 73.3872
1030 1 19.0872 21.6049 74.7736
1032 1 25.4398 21.6113 73.7439
1034 1 32.2605 21.6091 72.9969
970 1 6.89999 26.1676 72.9807
1117 1 29.3035 23.8656 75.0613
1042 1 13.3053 26.2603 76.4233
1044 1 19.9167 26.2508 74.3321
1046 1 26.1014 26.1218 73.6839
1024 1 1.21525 21.414 78.384
1048 1 32.1008 26.3698 72.9575
982 1 1.58946 7.73695 78.3511
853 1 32.2628 5.96818 60.9214
984 1 7.6879 7.82974 77.4359
1058 1 19.3051 6.62543 78.3965
1060 1 27.151 7.85456 77.907
1062 1 31.6126 8.10435 78.7471
996 1 1.18249 12.2209 78.225
998 1 7.04356 12.6055 77.3628
773 1 2.17105 5.97807 59.7253
1000 1 13.8189 12.7564 75.7604
1071 1 16.8742 10.2099 77.4578
703 1 2.94427 6.16079 53.8696
1073 1 23.7056 11.0267 76.5222
1074 1 27.4246 12.6474 77.7925
1090 1 31.3634 17.3932 78.6094
1076 1 31.1618 12.2759 78.4995
1083 1 11.4393 14.6322 78.6292
1085 1 17.7354 14.7165 77.2505
1087 1 23.4967 14.9974 76.5302
1088 1 27.0839 17.2907 77.9471
921 1 26.9136 5.6486 66.4715
1010 1 1.29954 17.5431 77.9933
1012 1 7.85592 17.2317 76.835
917 1 14.9517 5.88168 68.74
1099 1 17.3066 19.1511 77.5536
707 1 12.2482 5.90742 54.99
1101 1 23.1885 19.7096 76.4043
1077 1 34.0756 9.75381 75.5451
2181 1 25.4112 28.3125 57.6005
2247 1 14.2508 28.0787 64.4214
2319 1 21.518 28.2489 67.8217
2393 1 33.9117 28.3185 69.9612