ITEM: TIMESTEP
337000
ITEM: NUMBER OF ATOMS
16000
ITEM: BOX BOUNDS pp pp pp
4.6489605755469654e-01 1.0173510394244811e+02
5.7852993019719463e+00 9.6414700698024092e+01
-5.2997546841819556e+00 1.0749975468417860e+02
ITEM: ATOMS id type x y z
18 1 11.0369 12.4402 -5.17978
6 1 15.0559 8.14078 -5.25881
10943 1 0.980115 8.28062 6.42268
8 1 19.6263 8.00749 -4.24133
10 1 24.2585 7.96016 -4.01685
12 1 28.9416 7.85008 -3.24622
14 1 33.4052 8.26136 -1.91035
85 1 3.7904 10.2442 -3.70567
87 1 8.52776 10.6041 -2.77835
293 1 28.8215 5.89429 19.5688
20 1 15.8774 12.5154 -5.06505
22 1 19.5627 12.7637 -4.24893
24 1 24.1265 12.6533 -4.00612
26 1 28.7293 12.5143 -3.45793
28 1 32.8089 12.6058 -2.50784
99 1 3.11944 14.7794 -3.2882
101 1 8.15221 14.5704 -2.84678
38 1 24.5589 17.2438 -3.58808
42 1 33.0448 16.8631 -1.89153
113 1 3.60114 19.2946 -3.73237
115 1 7.79541 19.2948 -2.44649
34 1 14.9918 17.6657 -4.52533
117 1 12.666 19.5749 -1.81416
36 1 19.9581 17.5937 -4.29195
40 1 28.7135 17.052 -2.09203
32 1 10.3169 16.8987 -5.04642
127 1 3.7244 24.0673 -3.39762
129 1 7.52268 24.1696 -3.20553
143 1 7.45439 6.01807 3.31049
48 1 15.1771 22.225 -4.80845
50 1 19.111 22.1401 -3.99463
52 1 23.3595 21.3983 -2.76358
54 1 28.2512 20.9401 -2.60404
56 1 32.7355 21.3264 -2.05886
151 1 25.8118 6.04262 6.25926
62 1 15.0498 26.3553 -4.13107
64 1 19.8479 26.8883 -3.59808
66 1 23.8755 26.0587 -3.15947
68 1 28.8946 26.5295 -3.08756
10878 1 1.39622 8.50383 -0.538187
72 1 5.51485 8.18811 0.00863063
74 1 9.87425 8.10642 1.12535
76 1 14.9281 8.16554 1.39394
348 1 25.8837 26.1496 22.2711
10956 1 0.953703 12.6834 5.90943
5848 1 34.1255 23.6679 13.5193
10891 1 0.939931 12.2742 -0.448155
86 1 5.55049 12.8568 0.0843473
88 1 9.5737 12.612 0.644466
89 1 12.6839 10.6379 -2.13924
91 1 17.1879 10.8409 -1.78076
93 1 21.9418 10.9126 -1.2492
95 1 25.6845 9.83512 -0.61382
97 1 30.5115 10.64 0.151436
10904 1 1.25747 16.8669 -0.273101
100 1 5.72589 17.2445 0.0882717
103 1 12.551 15.2883 -1.34606
105 1 16.8164 15.6084 -1.8049
107 1 21.6795 15.0321 -0.537931
109 1 26.2925 14.5929 -0.228219
111 1 30.8097 15.0626 0.534392
102 1 10.0669 17.7873 0.661729
119 1 16.9946 20.2329 -1.02259
121 1 21.22 19.4734 -0.112707
123 1 25.9524 19.1119 0.0494373
125 1 30.2003 19.6258 0.40719
10917 1 1.48429 21.5438 -0.137473
114 1 5.56158 21.7279 -0.158558
116 1 9.54967 22.355 0.65647
133 1 16.9552 24.9298 -1.36012
120 1 19.449 22.1224 2.12664
135 1 21.4513 24.1572 -0.311332
137 1 26.1026 23.8814 0.0767257
139 1 30.6869 23.865 1.02825
10930 1 1.04227 26.1756 -0.267457
128 1 6.08115 25.4808 0.0937081
131 1 12.2758 24.4231 -1.68936
132 1 14.1454 26.508 1.9496
1547 1 16.332 28.1003 5.079
344 1 17.4836 26.0042 21.1775
10995 1 0.92234 26.1258 5.51795
70 1 33.3661 26.0685 -1.72698
5731 1 33.7468 5.90001 7.35624
155 1 3.19567 10.682 2.4905
145 1 12.0343 5.97278 4.0466
78 1 19.6657 8.42708 2.30533
147 1 16.5969 6.16261 5.05528
80 1 24.2504 8.49871 3.59842
82 1 28.4891 7.46477 3.04964
84 1 33.2653 7.65574 4.09943
157 1 7.64592 10.6283 3.4148
159 1 12.0362 10.6113 4.08713
90 1 15.1375 12.8546 1.38813
92 1 18.8499 13.1623 1.91209
161 1 16.755 10.367 5.0322
163 1 20.5649 10.8355 5.45341
96 1 27.8689 12.1975 3.07557
98 1 31.8278 12.6206 3.86018
169 1 3.06732 14.9186 2.63494
171 1 7.74004 15.1446 3.62644
104 1 14.1583 17.5205 1.42026
173 1 12.2472 14.7625 3.52895
94 1 23.7989 12.2131 2.70286
110 1 28.2036 16.9206 3.48633
112 1 32.03 17.4074 4.26158
183 1 2.73097 19.6996 2.90581
185 1 7.88402 19.2345 3.85409
187 1 12.0731 20.0384 4.46235
106 1 18.7545 17.2529 2.11548
189 1 16.5654 19.6488 4.8947
108 1 23.5521 16.8754 2.76404
197 1 2.72228 23.5123 2.81465
199 1 8.22699 24.0146 3.97558
118 1 14.5794 22.2064 1.45861
201 1 12.1478 23.8521 4.09017
203 1 16.7446 24.2317 5.27133
205 1 20.7625 24.1366 5.09719
122 1 23.5415 21.722 3.1414
124 1 28.151 21.839 3.46668
126 1 32.7453 21.7556 3.93524
342 1 12.7574 26.2962 20.4425
130 1 10.0712 26.7167 0.833895
134 1 19.5247 26.657 2.19544
5822 1 33.6195 14.7343 13.8102
136 1 24.1081 26.1331 3.17676
138 1 27.6589 26.3701 3.72344
140 1 32.3824 26.5121 4.02429
142 1 5.32971 8.59206 6.58968
144 1 9.27524 8.15783 6.96331
146 1 14.0307 8.22326 7.5436
148 1 19.219 8.37399 8.396
149 1 21.2127 6.27882 5.67009
328 1 12.8409 21.5563 20.2698
156 1 5.34928 13.3294 6.63418
158 1 9.74513 12.701 6.83887
160 1 14.0904 12.8766 7.48591
162 1 18.9022 12.7381 8.44873
165 1 25.6835 10.7867 6.74554
167 1 29.9691 10.0804 6.60482
346 1 22.0154 26.1246 22.0203
170 1 4.63013 17.1076 6.26604
175 1 16.1607 15.2303 5.2299
177 1 21.1199 15.1938 5.52033
179 1 25.7701 15.2858 6.16533
181 1 29.8933 14.065 6.89979
367 1 5.89049 10.4771 22.5697
172 1 9.13503 17.3758 6.8881
174 1 13.8847 17.2477 7.86972
176 1 18.204 17.4092 8.71
191 1 21.2244 19.0477 5.24376
193 1 25.9518 18.8924 6.19504
195 1 29.9384 19.6349 6.95408
153 1 29.98 6.00895 6.76588
184 1 5.5228 21.6658 6.83097
186 1 9.59334 21.6999 6.94054
188 1 14.0083 22.0874 7.9984
190 1 18.4066 22.1235 8.155
207 1 26.25 23.6142 6.62091
209 1 30.1449 24.3775 6.53457
198 1 4.92855 26.1846 6.36158
200 1 9.68952 26.669 6.94887
202 1 13.212 25.9152 8.0278
204 1 18.4184 26.3443 8.60749
291 1 24.0386 6.17718 18.716
334 1 26.614 21.8685 21.4551
289 1 19.9081 6.13075 18.0318
215 1 11.651 5.80255 9.97671
77 1 17.355 6.29347 -1.30812
150 1 23.7408 8.06055 9.04977
152 1 27.508 8.13726 10.0084
154 1 31.4399 8.25605 10.7424
225 1 3.04599 10.5421 9.17594
227 1 7.29458 10.4554 9.86839
229 1 11.9454 10.5783 10.1239
231 1 16.4025 11.0151 10.7908
233 1 20.6839 10.3024 11.8462
164 1 22.9539 12.7481 9.04366
166 1 27.2481 12.677 9.73907
168 1 31.9338 12.6885 9.89673
239 1 3.00237 15.3644 9.1627
241 1 7.37438 14.9278 10.2856
243 1 11.5421 15.3403 10.1983
245 1 15.8411 14.9225 11.5182
180 1 28.2276 17.3937 9.36361
182 1 32.3806 17.4374 10.4638
253 1 2.89679 19.9489 9.62908
255 1 7.1898 19.6644 10.565
257 1 11.2727 19.5017 10.6528
259 1 15.9596 19.4188 11.1438
261 1 20.1933 18.9722 11.686
178 1 22.7865 17.3718 9.22297
263 1 25.2616 19.6897 12.3615
267 1 2.55675 24.1217 9.49793
269 1 6.6493 24.3738 9.54571
271 1 11.1203 24.1723 10.7647
273 1 15.7369 24.1246 11.3219
275 1 20.3243 23.8677 11.4004
192 1 23.0249 21.4074 8.66702
194 1 28.0656 21.7696 9.24601
196 1 31.8127 21.8099 10.8169
213 1 7.61292 5.87496 9.72399
381 1 6.06704 15.2297 22.2543
340 1 8.01698 25.9288 19.3897
69 1 30.6916 23.7391 -5.04914
206 1 23.0716 25.8766 9.22293
5913 1 33.5955 24.0003 20.5863
208 1 27.5329 26.222 10.4143
210 1 32.2697 26.2342 9.95858
212 1 4.95478 8.2791 12.6322
214 1 9.75423 7.7565 13.1437
216 1 14.129 8.20604 13.4959
218 1 17.9485 8.05394 14.1396
220 1 22.3382 8.04012 15.4119
349 1 29.0954 24.107 19.3421
222 1 26.9183 7.98888 16.0653
226 1 5.06772 12.5133 12.5279
295 1 2.00148 10.2591 15.3005
228 1 9.71199 12.2982 13.478
230 1 13.5104 13.0385 13.854
232 1 17.9874 12.7419 14.9497
235 1 24.8757 10.5154 13.1058
237 1 29.602 11.1685 12.7311
5809 1 33.8084 10.5799 14.1687
240 1 4.54622 17.2005 13.2025
309 1 2.14773 14.7665 15.4493
311 1 6.43518 14.5021 16.4709
242 1 9.33402 17.0644 13.9018
246 1 18.1872 16.723 14.7347
234 1 22.3315 12.6594 15.3014
247 1 20.616 14.3866 11.5276
248 1 22.5582 17.2643 15.3632
249 1 25.1892 15.2578 12.511
251 1 29.2839 15.3005 12.9087
323 1 2.49139 19.509 15.863
244 1 13.2751 17.8902 13.832
265 1 29.5132 19.4156 13.3211
5835 1 33.6934 19.3018 14.391
254 1 4.1733 21.7629 12.5262
256 1 8.56204 22.3284 13.292
258 1 12.8436 21.6451 13.8479
260 1 17.8757 21.49 14.7504
262 1 22.396 21.9645 15.2869
277 1 24.9944 23.7491 12.069
279 1 29.5405 24.149 13.0653
395 1 6.26623 19.6965 22.3861
268 1 4.44291 26.6255 12.8871
71 1 3.55875 5.93885 -2.99395
270 1 9.12177 26.4309 13.8435
272 1 13.706 26.5887 13.6881
274 1 18.1319 26.2293 14.3971
276 1 22.2428 26.0205 14.8472
283 1 6.2975 6.40935 16.4016
285 1 10.8246 6.30148 17.0508
284 1 8.32175 8.34905 19.7862
287 1 15.498 5.95794 17.6517
1755 1 10.1927 28.3722 22.6737
5757 1 33.8579 14.6934 7.73175
224 1 31.5527 8.31026 16.3679
296 1 4.32569 12.5722 18.6858
297 1 6.5112 10.1993 16.3736
299 1 10.9733 10.219 16.396
301 1 15.6393 10.638 17.194
303 1 20.1423 10.6439 18.8195
305 1 24.1285 10.5087 18.8581
236 1 27.0279 12.7052 15.8895
307 1 28.7028 10.3753 19.3808
238 1 31.0826 12.2827 17.1204
310 1 3.66828 17.2307 19.2931
313 1 11.0582 14.9736 16.5581
315 1 15.3745 14.6545 17.5414
317 1 19.8296 15.1564 18.5645
250 1 27.0992 17.355 16.3694
319 1 24.0836 14.91 18.8467
321 1 29.2273 14.7066 19.5576
252 1 30.9867 16.8728 16.9818
325 1 6.5969 18.9538 16.0738
327 1 10.887 19.6713 17.357
329 1 15.4597 19.3726 17.1557
331 1 20.0087 19.4215 18.4272
333 1 24.5868 19.6805 18.5507
337 1 2.21864 24.0347 14.8827
324 1 3.65301 21.2928 18.9201
339 1 6.62589 23.8993 16.0711
341 1 11.2134 24.0293 16.5157
326 1 8.37995 21.786 19.5603
343 1 15.0811 24.0377 17.1799
345 1 19.6262 24.1555 18.1915
347 1 24.2708 24.3622 18.5543
264 1 26.6691 21.9951 16.0198
266 1 31.2201 21.9218 16.9293
338 1 3.33024 25.4298 18.6992
407 1 1.03698 23.4424 21.7898
332 1 22.1146 21.9081 21.2272
278 1 26.1494 26.0291 16.1302
330 1 17.4623 21.9228 20.6304
280 1 31.512 26.597 16.4234
4 1 10.7816 7.60775 -5.40777
282 1 3.52573 7.8316 19.1421
5861 1 33.3451 6.00391 20.2995
409 1 5.88444 24.0622 22.3074
286 1 12.9642 7.81431 20.096
288 1 17.3581 8.35503 20.9421
290 1 21.3714 8.25286 22.1377
292 1 26.0056 8.13316 22.5285
335 1 29.3142 19.5402 19.2002
365 1 1.46834 10.9449 22.0745
5900 1 33.8305 19.313 19.9488
298 1 8.88522 12.3763 19.755
300 1 12.9796 12.6285 20.0073
302 1 17.2539 12.4104 21.1051
304 1 21.9774 12.7882 22.4419
306 1 26.4768 12.6385 22.2694
5874 1 33.2942 9.80723 20.3634
411 1 10.5085 24.4483 22.7342
379 1 1.34955 15.1612 21.948
46 1 10.5435 21.5456 -4.95664
318 1 22.2042 17.4635 22.1163
320 1 26.3427 17.1003 22.0366
5887 1 33.8792 14.575 20.1987
393 1 1.5801 19.3885 21.9947
75 1 12.7863 6.00323 -1.61384
312 1 8.49611 17.1599 19.7097
314 1 13.2032 16.8598 20.48
316 1 17.3095 16.9208 21.1647
1541 1 3.25617 28.1178 2.83114
73 1 8.25209 5.82829 -2.79322
217 1 16.2105 5.8367 10.9942
141 1 3.45273 6.2979 2.98834
1549 1 21.1278 28.1491 5.85576
7161 1 33.1719 28.2641 19.9665
1623 1 29.3292 28.0034 13.3203
383 1 10.4732 15.4406 22.8735
1543 1 7.25412 28.3323 3.83853
1613 1 7.61291 28.2406 9.85316
353 1 5.78359 5.97868 22.5302
79 1 22.3518 6.22731 -1.01334
211 1 2.91226 6.05447 9.87936
1621 1 24.7464 28.4669 12.4008
7096 1 33.9695 28.0697 13.8189
27 1 31.1505 10.2853 -5.21608
352 1 3.32513 7.43553 25.2653
354 1 7.45439 7.84501 25.7684
357 1 14.6112 6.14421 24.0058
356 1 11.8604 8.48776 26.544
359 1 18.7138 5.71617 24.5248
427 1 13.7973 5.99577 29.9735
366 1 3.31177 12.6753 25.2109
368 1 7.42653 12.434 25.7542
1891 1 0.399545 28.1965 34.2747
371 1 14.3212 10.8709 23.3069
373 1 18.874 10.388 24.4945
375 1 23.5594 10.6301 25.2637
377 1 28.3046 10.1894 25.9116
5939 1 33.0533 10.4723 26.4196
6056 1 33.4004 5.83723 36.7416
385 1 15.3484 15.2135 24.3623
387 1 19.3628 15.2086 24.233
389 1 23.8561 15.171 25.3665
391 1 28.2468 15.2722 26.0018
5952 1 32.6302 15.1127 26.5413
322 1 30.9115 17.3764 22.9408
380 1 3.67217 17.3666 25.4691
382 1 7.89576 17.2047 25.9833
397 1 10.366 19.1378 23.3979
399 1 14.7218 19.8639 23.8449
401 1 19.1689 19.9648 24.2749
403 1 23.386 19.5981 24.8868
405 1 28.15 19.5916 25.6284
5965 1 32.5247 19.5577 26.7928
394 1 3.25414 21.8576 25.3262
396 1 7.96849 21.1487 26.0637
643 1 29.2153 6.10885 46.4956
413 1 14.5691 24.5816 24.0369
400 1 16.0504 21.6216 27.4802
415 1 18.6852 24.4038 24.5969
417 1 23.7329 24.3286 25.0952
419 1 28.3609 23.6302 25.3392
435 1 0.924379 10.0251 27.7787
408 1 3.02731 26.242 24.7388
637 1 12.469 6.03272 48.6936
410 1 7.79313 25.9499 25.0867
640 1 20.6985 7.97603 51.1202
1963 1 4.01804 28.5168 41.2902
350 1 30.8477 25.9399 22.906
423 1 5.37666 5.98257 29.1973
682 1 21.0831 21.5357 50.938
358 1 16.3376 7.78793 27.2927
360 1 21.5546 7.52347 27.8995
362 1 25.5721 8.21745 28.3087
364 1 30.4893 8.49901 29.7198
501 1 22.9179 6.10315 37.0688
437 1 4.70872 10.0994 28.7798
439 1 9.55099 10.3762 29.2007
370 1 11.8891 12.9956 26.9368
441 1 14.2102 10.621 30.3109
372 1 16.4975 12.2279 27.3282
374 1 20.9326 12.7305 28.0492
376 1 25.6453 12.8146 28.7074
378 1 30.6997 13.0328 29.05
451 1 5.13998 14.8559 28.9871
453 1 9.83391 15.1058 29.4334
390 1 25.7268 17.7368 29.0589
392 1 30.2925 17.142 29.2243
465 1 4.59371 19.6437 29.1859
467 1 9.26859 19.6167 29.2993
384 1 12.5659 17.5298 26.4031
469 1 13.7634 19.5333 30.5897
386 1 17.1474 17.1131 27.153
388 1 21.4775 17.4532 27.5232
479 1 5.01464 23.8682 28.2446
481 1 9.40515 23.7931 29.1357
398 1 11.5542 22.0316 26.3997
483 1 14.3451 24.2067 29.8541
402 1 20.749 21.9892 28.0354
404 1 25.2984 21.6815 28.2936
406 1 29.8028 21.9505 29.2624
5978 1 33.0554 23.7046 26.2755
308 1 30.5758 12.6414 22.8182
294 1 30.6323 8.24615 23.3224
412 1 12.3456 26.8697 26.322
414 1 16.4357 26.0091 27.2292
416 1 21.1744 26.1946 27.6406
418 1 25.8888 26.1128 28.4087
420 1 30.4362 26.7119 28.9856
422 1 2.43657 8.60627 31.5254
424 1 7.16652 8.43607 32.614
426 1 11.7428 8.95673 32.8469
654 1 20.4081 12.446 50.9414
428 1 15.7915 8.42343 33.4674
445 1 22.6377 10.3244 31.285
369 1 10.0304 10.9212 23.2177
436 1 2.26459 12.6302 30.5385
438 1 6.87726 12.3176 31.8249
440 1 11.5096 12.6727 32.4223
443 1 18.6832 10.2439 30.0539
442 1 15.7778 12.8633 33.3794
447 1 27.5145 10.65 32.3198
6004 1 32.2869 10.6706 32.7591
450 1 2.09483 17.2482 31.8206
452 1 6.63191 16.4838 32.1446
455 1 14.0344 15.0726 29.8333
457 1 18.9314 14.9818 30.494
459 1 22.8517 15.0511 31.5645
461 1 28.2966 15.1748 31.9948
6017 1 32.5785 15.0198 32.8583
454 1 10.5881 17.3224 33.1502
471 1 18.4215 19.2986 30.6633
473 1 22.7709 19.5926 31.152
475 1 27.4873 19.301 32.2526
6030 1 32.0702 19.6495 32.6245
464 1 2.01919 21.907 31.3165
466 1 6.90446 21.3592 32.1829
468 1 11.5751 21.7715 32.7822
485 1 18.7982 24.0634 30.7496
470 1 15.6795 21.7159 33.4053
487 1 23.3722 24.452 31.1503
489 1 27.6576 23.716 32.2863
6043 1 31.7118 23.7477 32.5469
478 1 3.22611 25.638 31.2284
480 1 7.36292 26.0949 31.8535
482 1 11.9152 26.3084 32.3058
698 1 26.4431 25.7151 50.3591
484 1 16.1335 26.5382 33.4186
503 1 27.4886 5.93793 37.9199
477 1 0.531373 25.081 28.2698
355 1 10.1983 6.25228 23.5671
688 1 0.782591 26.0612 50.584
361 1 23.6911 5.99987 24.4068
430 1 20.3643 8.47068 34.1895
432 1 25.4518 7.80333 34.4763
434 1 30.1051 7.76059 35.194
1973 1 28.1822 28.2013 42.9839
507 1 4.69161 10.2302 35.3041
509 1 9.09128 10.377 35.4696
511 1 13.4416 10.1633 36.2824
513 1 18.0115 10.4806 36.7906
444 1 19.5801 13.224 33.6693
446 1 25.0079 12.6586 34.6014
448 1 29.6559 12.706 35.7964
6069 1 33.4041 10.5606 36.9806
521 1 4.6442 14.2824 35.0206
523 1 9.16471 15.183 35.8139
525 1 13.2697 15.599 35.7111
527 1 17.3457 14.8426 36.3447
460 1 24.8586 17.3703 34.4134
462 1 29.7379 17.4143 36.0749
6082 1 33.1818 15.2519 37.6118
535 1 4.54356 19.0697 35.1865
537 1 8.42505 19.6047 35.8616
539 1 13.319 19.5661 36.344
456 1 16.0881 17.3981 33.2459
541 1 17.9872 19.7427 37.0062
458 1 20.7784 17.1843 34.3252
549 1 4.19745 23.2642 34.5406
551 1 8.77127 24.4492 35.2906
553 1 13.1909 24.295 36.34
555 1 18.0107 24.3627 37.0392
472 1 20.0691 22.0173 34.0854
474 1 24.6575 21.5825 34.7221
476 1 30.485 22.0891 35.7561
6108 1 33.8417 24.4535 37.7127
7291 1 32.2617 28.4083 32.8359
486 1 20.8148 26.0526 34.2942
488 1 25.4801 26.2914 34.7434
490 1 29.3306 26.592 35.4476
492 1 1.7679 8.18406 37.806
494 1 6.66589 7.8964 38.6296
496 1 11.0002 7.89531 39.3888
498 1 16.5106 8.72014 39.8594
500 1 20.433 8.08039 40.201
7226 1 33.0346 28.1763 26.3795
686 1 32.5811 21.7842 48.6759
684 1 26.5277 21.4876 50.088
504 1 30.7151 8.19654 39.7141
506 1 2.07511 12.8085 37.8088
508 1 6.86435 12.4886 38.7708
510 1 11.5219 12.9174 39.2511
512 1 15.3595 12.4556 39.2433
515 1 22.5555 10.7362 37.1474
514 1 19.6255 11.9452 40.5046
517 1 27.2519 10.5498 37.7846
518 1 30.6804 13.1904 39.6983
529 1 21.8206 14.8134 37.4672
531 1 27.1736 15.098 37.9318
532 1 30.7386 17.7372 40.8686
520 1 1.9114 16.8334 37.7682
522 1 6.32194 17.2251 39.138
524 1 10.9924 17.7069 39.1911
526 1 15.3052 17.4992 39.6331
543 1 22.4314 19.3462 37.2965
545 1 27.1175 19.5231 37.912
6095 1 33.1508 19.6065 37.283
534 1 1.73263 21.52 37.4516
536 1 6.16668 21.9975 38.382
538 1 10.6979 22.4976 38.9575
540 1 15.0061 22.0694 39.8832
557 1 22.7429 24.0064 37.5886
542 1 19.5843 21.627 40.2137
559 1 27.2613 23.8399 38.2773
546 1 30.4879 21.7489 40.5237
548 1 2.39745 26.0354 37.6767
550 1 6.66375 26.369 39.1345
552 1 11.3194 26.4335 38.8423
554 1 15.821 26.6081 39.7113
556 1 20.251 26.2985 40.9266
431 1 23.2903 5.93606 31.3667
668 1 20.8587 17.0284 50.8227
560 1 30.8841 26.1868 39.9812
1893 1 5.3412 27.8972 35.249
425 1 9.69023 6.50277 30.7344
635 1 7.69774 6.13091 48.429
499 1 18.2397 5.77755 36.5904
632 1 0.894832 7.89336 50.7985
502 1 25.4717 8.12846 40.7968
567 1 13.1272 6.47612 42.7723
576 1 1.17683 12.6954 44.4267
577 1 3.9538 10.2768 41.503
579 1 8.90663 10.4706 41.7375
581 1 13.5874 10.2148 42.4081
583 1 17.9294 10.2679 43.6477
585 1 21.5072 10.4214 43.9209
516 1 24.3117 12.3229 40.4205
587 1 28.3524 10.1354 42.3049
591 1 4.10132 14.8867 41.695
593 1 8.85671 14.8158 42.1581
595 1 13.2052 15.0676 42.3159
597 1 17.1775 14.954 42.852
528 1 19.6293 17.3624 40.7065
601 1 28.2378 14.9144 42.1869
700 1 33.1859 26.3531 48.7561
605 1 3.82143 19.5969 41.6571
607 1 8.87178 19.5743 42.2787
609 1 13.3402 19.6296 42.3151
611 1 17.2935 19.4973 43.2108
613 1 21.9586 19.2292 43.5494
530 1 24.3429 17.0694 40.8757
615 1 27.4726 18.8517 42.5973
633 1 3.52416 6.33105 48.1397
619 1 4.22403 24.1972 41.4241
621 1 8.41822 24.1232 41.8231
623 1 12.8567 24.3424 42.7477
625 1 17.3182 24.1487 43.6358
627 1 21.8984 23.6466 44.32
544 1 24.3736 21.4581 40.9417
629 1 28.0432 23.8904 42.9276
618 1 2.2746 26.0192 44.2806
2041 1 23.2222 28.2316 48.7409
691 1 7.91266 24.2097 48.8132
558 1 24.1631 26.0041 41.6205
697 1 23.4562 23.9867 48.5359
630 1 32.0929 26.0084 44.1183
562 1 1.52971 7.82731 44.4398
564 1 6.17691 8.08533 44.3281
566 1 10.7121 8.42879 45.2924
568 1 15.3024 8.13315 46.2107
570 1 18.9136 7.49039 46.6335
572 1 25.3703 8.16614 45.0658
695 1 17.0037 23.9498 49.8996
574 1 31.9084 7.94762 44.132
578 1 5.85392 12.1281 44.7644
580 1 10.4666 13.1441 45.2381
582 1 15.1166 12.7654 46.0358
584 1 19.3482 12.1976 46.3523
586 1 25.5943 12.6219 44.7718
657 1 28.8063 10.2873 47.0311
588 1 31.5439 12.6669 44.352
590 1 1.47452 17.5364 44.3484
661 1 3.7013 14.8786 47.7707
596 1 15.0597 16.7342 46.5073
599 1 21.8572 14.5161 43.7891
671 1 29.1817 14.9341 46.966
602 1 32.1229 17.0563 44.3629
675 1 3.86373 19.4778 47.4614
592 1 6.26974 17.7308 44.7436
594 1 10.8371 17.6981 45.2953
598 1 19.6351 16.9657 46.5558
600 1 25.3839 16.6379 45.3711
604 1 1.84902 22.1764 43.6937
689 1 3.43214 24.1103 47.5429
606 1 6.49427 22.1254 44.5771
608 1 10.9604 22.2841 45.4084
610 1 14.9096 21.4025 45.5992
612 1 19.5287 21.2211 46.9224
614 1 25.7177 21.501 45.2169
699 1 29.3494 24.2206 47.4404
616 1 31.9255 21.7299 44.3449
620 1 6.32274 26.5715 45.0256
622 1 10.4626 26.7854 45.3214
624 1 14.9485 25.8786 46.4406
626 1 19.445 26.0815 47.3956
628 1 25.4618 26.2247 46.0452
433 1 28.136 6.26758 31.7715
642 1 27.0596 7.67858 49.4023
644 1 32.6251 8.17408 48.8578
647 1 3.38695 10.5558 47.8829
646 1 0.88308 12.4602 50.0382
649 1 7.82905 10.6454 48.0518
651 1 12.7168 10.7878 48.3851
653 1 16.9643 10.3069 49.69
655 1 23.504 10.5123 48.1585
1971 1 21.9244 28.3007 44.2521
656 1 26.6638 12.7934 49.5242
658 1 32.4791 12.5092 48.9005
663 1 7.95699 15.1595 48.0634
665 1 12.1356 14.7977 49.2044
667 1 16.942 14.8817 49.2345
669 1 22.4833 14.7012 47.5374
670 1 26.2759 17.5585 49.3138
660 1 1.12757 17.1797 49.8791
2043 1 28.9086 28.2864 47.0686
677 1 8.41655 19.715 48.6035
679 1 12.9051 19.5087 48.892
681 1 17.1997 19.5856 49.4471
693 1 12.3706 23.8449 48.6911
683 1 22.9432 19.2163 48.1981
685 1 28.9266 19.5714 46.8548
672 1 32.7363 17.2565 48.9536
674 1 0.66224 21.5745 50.192
1967 1 13.0628 28.2713 42.9263
1759 1 19.6572 28.4354 25.1328
1903 1 27.0871 28.252 38.3117
1901 1 22.819 28.2108 38.0758
2039 1 16.3867 28.2931 49.5518
569 1 17.7124 5.81304 43.2244
429 1 18.5685 6.03036 30.6034
336 1 30.95 21.2889 22.9384
1116 1 27.1065 25.9414 78.2274
1061 1 29.8774 5.92838 75.1024
634 1 5.87145 8.60213 51.09
636 1 9.73158 8.28847 51.8686
638 1 14.2829 8.65824 52.1975
696 1 20.8044 26.5251 51.5415
777 1 13.1792 6.23897 59.512
705 1 7.69787 6.56057 54.5334
712 1 27.4562 7.62977 54.0308
690 1 5.42462 26.0892 51.2456
678 1 9.92022 21.499 51.8991
717 1 2.90998 10.6674 53.8196
912 1 0.494469 7.38567 74.0082
650 1 10.2205 12.8277 51.7961
652 1 14.2898 12.8442 52.4876
723 1 18.2714 10.6355 53.8612
725 1 24.4459 10.6784 52.162
726 1 27.6314 12.1992 54.1732
727 1 30.3445 10.5837 51.3173
2183 1 31.876 27.9225 56.1198
731 1 2.82393 15.257 53.86
733 1 7.25708 15.078 54.9419
666 1 14.337 17.7811 51.8638
737 1 18.2549 15.1838 53.8637
739 1 24.3008 14.5271 51.9663
741 1 30.3704 14.7827 51.5339
740 1 27.3081 16.7759 54.3982
915 1 9.22898 6.02585 70.2134
745 1 2.50243 19.917 53.6801
664 1 10.0621 16.9883 51.8362
751 1 18.2155 19.8902 53.3602
753 1 24.0802 19.3439 52.3454
755 1 29.8955 19.4219 51.4707
759 1 2.20704 23.7687 53.1704
676 1 5.24399 21.6836 51.4128
926 1 0.789202 12.4026 73.2447
680 1 13.8361 21.4282 52.1051
765 1 18.5338 24.22 53.85
767 1 24.1106 24.1096 53.0498
703 1 3.4653 5.92557 54.1199
754 1 27.7071 21.536 54.5863
756 1 33.7497 21.7167 53.1562
968 1 0.562411 26.3065 73.5204
707 1 11.9963 6.56058 55.7661
1102 1 27.0781 21.2827 78.1348
692 1 10.05 26.1545 52.0614
694 1 14.6123 26.232 52.1139
709 1 18.3694 6.04628 53.7416
768 1 28.1357 25.9693 54.3194
648 1 5.57706 12.544 51.2978
770 1 34.1164 25.6492 52.679
2177 1 13.3641 28.1783 59.7952
704 1 4.65014 7.88539 57.8901
708 1 15.9424 8.67107 56.3281
710 1 21.6628 8.45761 55.2844
781 1 24.9563 5.96229 57.3862
2389 1 22.7587 28.2899 71.8096
719 1 7.32497 10.4578 54.9897
718 1 4.66671 12.9517 57.3618
720 1 9.3474 12.7992 57.9386
721 1 12.0645 11.0181 54.7005
722 1 15.7332 13.4452 56.6435
724 1 21.5918 13.3647 55.4176
795 1 25.5426 10.5068 57.1359
797 1 31.4431 10.3249 56.1478
1086 1 21.2494 17.2098 78.966
732 1 4.43368 17.9998 57.5007
735 1 11.9018 15.1904 54.8153
736 1 15.5771 17.6576 56.4981
807 1 19.3236 15.4459 58.4979
809 1 25.0642 14.7738 57.2259
811 1 31.3537 14.7658 55.9417
747 1 7.44642 19.7716 54.7711
749 1 11.9655 19.4344 55.5102
738 1 21.8799 17.9701 55.9645
823 1 25.2241 19.5613 56.9634
825 1 31.266 18.7234 55.9893
761 1 7.80169 24.4931 54.8386
746 1 4.88128 21.9905 57.4848
763 1 12.5768 24.0255 55.4122
748 1 9.55778 21.975 58.2012
750 1 15.6319 21.6459 56.558
752 1 21.4577 21.9409 55.4806
835 1 18.9614 24.2371 58.5048
837 1 25.2557 23.9802 57.6244
839 1 31.3706 23.221 55.7077
760 1 5.38696 26.6603 58.247
762 1 9.53924 26.6876 57.992
1042 1 13.7691 26.1052 75.3203
764 1 15.6628 26.2052 56.7251
766 1 21.9935 26.4561 56.1907
2175 1 6.59997 28.1189 61.9349
779 1 19.0844 5.90952 58.2897
1040 1 7.30083 26.1926 77.2197
706 1 8.96388 8.20254 58.7363
1115 1 23.8569 24.261 76.4484
778 1 16.9628 8.39285 61.1427
780 1 22.5994 8.18804 59.7926
782 1 29.1022 7.94698 58.3704
1114 1 21.0183 26.0689 79.1013
787 1 2.39005 10.3437 60.2419
789 1 6.8124 10.8787 60.7973
791 1 12.7412 10.894 59.1786
793 1 19.2603 10.7639 58.3203
792 1 16.5511 12.8029 61.3925
794 1 22.3563 12.0207 59.8605
865 1 25.9797 10.7714 61.3588
796 1 29.2051 12.6589 59.4516
867 1 32.5491 10.1515 60.2229
801 1 2.38484 14.9813 60.5901
803 1 6.57041 15.3124 60.4468
805 1 13.5358 15.5662 59.3555
881 1 32.7005 14.6278 60.1192
815 1 2.03271 19.539 60.2458
817 1 6.78846 19.6303 61.2914
734 1 9.31016 17.369 58.3423
819 1 13.0873 19.4029 59.9883
806 1 16.7377 17.28 61.6853
821 1 19.3928 19.6031 58.38
808 1 22.8436 16.6659 59.7711
810 1 28.8594 16.9897 58.9398
895 1 32.6747 19.4539 60.5628
829 1 1.80092 24.4128 60.1617
831 1 6.82806 23.9165 61.4131
833 1 13.6333 23.7819 60.1493
820 1 17.1352 21.5995 61.13
822 1 22.607 21.5925 59.895
907 1 26.2668 23.5294 62.0837
824 1 28.9567 21.5811 59.0499
909 1 32.6033 23.7364 59.992
834 1 16.6856 26.4101 61.0043
836 1 22.76 26.2762 60.5787
1100 1 20.7643 21.5483 78.4853
838 1 29.0814 26.3295 58.5986
1113 1 17.2724 24.021 77.5737
774 1 4.77047 7.92247 63.493
776 1 10.7128 8.65654 62.0525
847 1 14.1577 5.85412 63.9614
850 1 23.9661 7.91289 64.1446
852 1 29.4568 7.94917 63.0029
2113 1 30.3078 28.4018 51.609
788 1 4.61245 12.3884 63.8328
790 1 10.4194 13.4977 62.2779
861 1 13.6077 10.397 64.1215
863 1 20.2112 10.1727 63.0567
864 1 23.7617 12.6426 64.3827
866 1 29.9465 12.1815 63.55
937 1 33.4137 9.71896 65.1367
802 1 4.54484 17.2396 63.3295
873 1 7.96388 15.1286 64.9417
804 1 10.4883 17.474 62.2139
875 1 13.9851 14.9657 63.9258
877 1 20.368 14.7238 63.2604
879 1 26.6167 14.6901 61.8342
951 1 33.4645 14.8894 64.7495
889 1 14.4123 19.3043 64.2065
891 1 20.5828 19.3302 63.6472
893 1 26.3046 18.6232 61.5508
878 1 23.8024 17.0069 64.9766
880 1 30.0897 16.9365 63.6078
816 1 3.64708 21.673 63.9108
818 1 10.3749 21.6303 62.1197
903 1 14.1651 23.7475 63.7363
905 1 19.8929 23.7678 63.0763
892 1 23.8265 20.8816 65.0981
894 1 29.1565 20.8454 63.1036
964 1 33.3234 23.9356 64.3715
830 1 3.45903 26.2529 63.6452
832 1 10.1653 25.9033 62.481
2103 1 3.15747 27.8744 54.2801
730 1 0.682426 17.1314 56.9322
906 1 23.6015 26.4074 64.9312
908 1 30.2264 25.9171 63.3539
1028 1 13.4071 21.4509 76.2341
844 1 5.65103 8.13074 68.0355
846 1 11.3825 7.581 67.2155
848 1 17.4477 7.96297 66.2006
1077 1 33.4955 10.0676 76.3095
921 1 27.8127 6.09153 66.135
922 1 31.0533 8.23995 68.4466
857 1 1.79736 10.184 66.3316
858 1 5.56708 12.7444 68.3601
859 1 8.24753 10.449 65.2187
860 1 11.5472 12.5837 66.818
862 1 17.4845 12.5449 66.008
933 1 21.8533 10.1118 67.0366
935 1 27.1163 10.1834 66.7542
936 1 31.0796 12.6194 67.4244
871 1 1.83775 14.7858 66.4167
874 1 11.6378 17.4117 66.6916
945 1 15.1003 14.854 68.4135
947 1 21.4467 14.7094 67.3504
949 1 27.3107 14.7634 66.4447
950 1 30.9218 17.2815 67.5967
885 1 1.36675 19.5221 66.0422
872 1 4.79169 16.9574 67.9498
887 1 7.74391 19.5744 65.4422
959 1 15.2878 19.7278 68.9368
876 1 17.8624 16.9299 66.098
961 1 21.1823 19.3657 68.0168
963 1 27.3838 19.3577 66.0212
1033 1 33.5865 19.2801 65.1686
899 1 1.88135 24.253 66.5073
886 1 5.24816 21.6491 68.3335
901 1 8.0431 23.9682 65.3814
888 1 11.9212 21.9365 67.0936
973 1 15.2404 23.6456 68.4555
890 1 17.8265 21.4907 65.629
975 1 21.1219 23.9554 67.5958
977 1 27.3939 23.966 66.3615
1035 1 30.8898 22.149 67.2552
900 1 5.22714 26.0952 67.9416
902 1 11.3321 25.8362 66.9407
904 1 17.8007 25.9696 65.9062
1111 1 11.0215 23.6911 78.6185
978 1 31.3154 26.1711 67.9745
916 1 12.6739 7.53649 71.5699
769 1 30.0138 24.0091 51.57
918 1 18.8242 7.46923 70.1178
920 1 24.7641 8.24717 69.1735
2455 1 11.2218 28.4195 78.6879
927 1 2.77951 10.1387 70.9377
929 1 9.46341 10.5382 69.6873
931 1 15.0215 10.2093 68.5957
930 1 12.9196 13.4093 71.3036
932 1 18.8158 12.4485 69.7974
934 1 24.2165 12.9561 69.1321
1005 1 28.1083 10.8636 71.0847
941 1 2.72915 15.1793 70.9518
943 1 8.66767 14.9794 69.6077
1017 1 22.2428 14.3416 71.7872
948 1 24.8269 16.931 69.4911
1019 1 29.0743 15.4625 70.5521
983 1 4.51962 5.79131 75.3954
955 1 2.83613 19.8383 71.2805
957 1 8.75787 19.0432 69.3016
944 1 11.7467 17.2237 70.6408
946 1 18.599 17.0681 70.8869
1031 1 23.0837 18.8647 72.229
1020 1 28.3763 19.198 70.9751
1022 1 32.7551 18.0699 72.0836
969 1 2.73226 23.7129 70.8103
971 1 8.92913 23.6742 70.0299
958 1 12.6916 21.6249 71.7487
960 1 18.6607 21.1727 70.2949
1045 1 22.5971 23.5113 71.8168
962 1 24.8922 21.9531 69.294
1047 1 28.1085 23.9471 70.7123
1034 1 31.8496 22.1601 71.5055
1026 1 7.47271 21.4366 76.9262
2251 1 26.0767 27.5437 61.9959
972 1 12.3364 26.1535 71.1403
974 1 19.0096 25.8862 70.3436
1024 1 1.10059 21.1252 78.1323
976 1 24.9464 26.3633 69.373
1048 1 31.8989 26.3387 72.3209
1118 1 31.7354 26.0484 78.5299
914 1 6.64171 8.04382 72.6863
988 1 19.6346 7.94724 74.7164
990 1 26.0366 7.82375 73.8321
1091 1 33.7974 15.0612 75.5293
992 1 32.2995 8.31286 72.0876
1088 1 27.1096 17.2073 78.0767
928 1 6.46602 12.7621 72.3498
997 1 3.44617 10.5197 74.9749
999 1 10.4693 10.6427 74.1554
1000 1 13.6687 12.1615 75.7282
1001 1 16.4468 10.0805 72.08
1003 1 22.3864 9.8491 71.7145
1002 1 19.2618 11.7643 74.6359
1004 1 25.6092 12.4246 73.676
1075 1 29.5905 10.3761 75.5411
744 1 0.559742 21.5412 56.9728
1006 1 31.6994 12.6571 71.9199
1013 1 10.1514 14.7796 74.1172
1015 1 16.1598 14.6565 72.7309
1016 1 19.7399 16.4998 74.4754
1018 1 25.8239 17.1617 74.2509
1089 1 29.2428 14.7428 74.7385
1025 1 3.91946 19.5236 75.6098
942 1 5.78525 17.1454 72.4825
1027 1 10.0728 19.3924 73.7462
1029 1 16.2743 19.0087 73.5203
1103 1 29.954 19.2968 74.9123
843 1 2.15934 5.77604 66.7759
1039 1 3.81068 23.7195 75.5091
956 1 7.00054 21.4189 72.7436
1041 1 10.1001 24.1103 74.1103
1043 1 15.9379 23.9207 73.0215
1030 1 20.0196 21.9219 74.4515
1032 1 26.5371 21.7578 73.5416
1117 1 29.9622 24.2155 75.126
1119 1 33.9327 23.2719 75.3616
1101 1 23.5611 19.7064 76.5377
970 1 6.33098 26.1708 72.5489
1038 1 1.36901 25.9276 78.3826
1044 1 19.7711 26.0142 74.8054
1046 1 25.8509 26.4168 73.7594
982 1 1.56991 8.08415 78.1393
984 1 8.35528 7.45299 76.9596
986 1 14.8993 7.61263 75.6719
1104 1 31.7259 21.8351 78.1757
845 1 8.56107 5.77756 65.1016
1090 1 31.536 16.8922 78.1713
1060 1 26.8335 7.84968 78.3863
1062 1 31.2948 7.91859 79.152
996 1 1.10462 12.7476 77.9546
998 1 7.77326 11.5566 76.4896
1069 1 11.8691 10.2401 78.6011
1071 1 16.886 10.7133 77.5567
851 1 26.5134 6.13145 61.7148
1073 1 23.2593 10.3682 76.7077
1074 1 27.2384 12.5765 77.9236
1076 1 31.2072 13.1208 78.9038
1011 1 4.38509 14.8133 75.1965
1010 1 1.13667 16.8681 78.2226
1012 1 7.51927 16.7639 76.7474
1083 1 11.2595 14.3314 77.9489
1014 1 13.3959 16.7454 75.7896
1085 1 17.9386 14.5678 77.2616
1087 1 23.4174 14.8471 76.4353
2457 1 17.1191 28.4864 77.7638
1097 1 11.2462 19.1022 78.4448
1099 1 17.3386 19.3849 77.546
2107 1 12.1928 28.0361 55.2771
714 1 34.1761 8.12152 53.0347
2463 1 34.015 27.8932 76.0979
991 1 28.2633 6.20388 70.7156
742 1 33.7964 17.2521 53.508