ITEM: TIMESTEP
335000
ITEM: NUMBER OF ATOMS
16000
ITEM: BOX BOUNDS pp pp pp
3.7762591993491412e-01 1.0182237408006776e+02
5.7714938621238048e+00 9.6428506137872319e+01
-5.2538181644135875e+00 1.0745381816441034e+02
ITEM: ATOMS id type x y z
6 1 14.5697 8.01834 -4.32982
8 1 19.1637 7.87326 -3.94279
10 1 23.5423 8.07648 -3.22979
12 1 28.2078 8.3843 -2.34289
14 1 32.7384 8.31144 -1.53485
85 1 3.76218 10.2815 -3.0551
87 1 7.91274 10.3807 -2.64068
89 1 12.4176 10.4067 -1.0478
5822 1 33.9354 14.8569 13.4029
22 1 19.2775 12.8241 -3.77057
24 1 24.0394 12.5009 -3.25752
26 1 28.5235 12.9923 -2.54726
28 1 32.9734 12.7498 -1.90999
99 1 3.22333 14.7281 -3.13665
101 1 8.00018 14.8418 -2.32915
215 1 11.6641 5.8143 10.753
36 1 19.6102 17.6316 -4.01348
75 1 12.0558 5.93927 -1.67151
42 1 32.1708 17.4535 -1.66336
113 1 3.4031 19.3736 -3.02675
115 1 7.64297 19.2623 -2.53391
34 1 14.9938 16.9292 -4.17264
38 1 24.3594 17.0411 -3.17564
40 1 28.2766 17.47 -2.63344
127 1 3.54795 24.1281 -3.24477
129 1 7.92576 23.8009 -2.39966
10982 1 0.712761 21.4292 6.0981
48 1 15.2475 20.7748 -4.79807
50 1 19.2442 21.6587 -4.6711
52 1 23.8825 21.6159 -3.89432
54 1 28.2488 21.3334 -2.19881
56 1 32.9632 22.19 -1.86336
1541 1 2.97448 28.0577 2.88689
10917 1 1.23192 21.6452 -0.25226
62 1 15.3244 25.0375 -4.21594
1477 1 16.7086 27.864 -1.75513
64 1 19.4016 25.6123 -4.35233
66 1 23.7596 26.1696 -3.15436
68 1 27.7818 26.0365 -3.09549
1475 1 12.2671 27.6367 -2.06339
10878 1 0.926115 8.2118 -0.0800152
72 1 5.63343 7.91818 0.687791
74 1 9.85463 8.73427 1.33902
78 1 18.8523 7.7476 2.58708
10891 1 0.908604 12.4386 0.175522
86 1 5.4883 12.3136 0.725145
88 1 9.308 12.3482 1.43804
90 1 13.9591 12.0668 2.28997
91 1 16.7079 10.2737 -0.555841
93 1 21.4161 10.2473 -0.592956
95 1 25.8693 10.8998 0.086941
97 1 30.0037 10.7611 1.24317
102 1 9.9803 16.9987 0.997909
103 1 12.2125 14.2458 -1.49412
104 1 14.6141 16.7833 1.72448
105 1 16.7213 14.7099 -0.498818
107 1 20.7402 14.839 -0.585262
109 1 25.7259 15.0258 0.497135
111 1 30.1327 15.2437 0.933184
10904 1 0.684544 16.9348 0.0986113
100 1 5.59487 16.7847 0.49128
117 1 12.1486 19.0187 -1.44355
119 1 17.632 19.246 -0.895864
121 1 21.6365 19.3217 -0.217431
123 1 26.5556 19.4697 1.02705
125 1 30.6676 19.7153 1.51442
20 1 15.101 12.8273 -4.3108
114 1 5.40819 21.8896 0.52412
116 1 10.0861 22.3228 1.67237
131 1 12.1115 23.0796 -1.81146
118 1 14.508 21.1161 1.83313
133 1 16.9921 23.201 -1.24957
135 1 21.6543 23.8182 -0.567442
137 1 25.8841 23.6203 1.22228
139 1 30.3856 24.3216 0.602006
10930 1 1.06785 25.8903 -0.64351
128 1 5.13967 26.3909 0.281045
130 1 9.74986 26.8619 0.685596
132 1 13.6325 25.5325 2.14016
1549 1 20.1582 27.9396 5.87231
5848 1 34.0503 23.3369 13.6638
1615 1 11.2108 28.0303 10.5613
76 1 14.1999 7.46147 2.00082
80 1 23.4699 7.96842 3.03822
82 1 27.9108 8.06094 3.31089
84 1 32.5057 8.35184 4.16456
155 1 2.84885 10.7486 3.18061
157 1 7.23189 9.78168 4.31133
159 1 11.5111 9.86607 5.11026
92 1 18.7697 12.0588 2.63708
94 1 23.5342 12.4086 2.80592
96 1 27.7976 12.8982 3.25278
98 1 32.5712 12.8964 4.33927
169 1 2.84428 14.711 3.55933
171 1 7.28329 14.5453 4.27327
173 1 11.8787 14.3466 4.89911
106 1 19.2464 17.5544 2.17819
108 1 23.6203 16.7548 3.37216
110 1 27.3615 17.2674 3.96512
112 1 31.6992 17.7385 4.43194
183 1 2.85225 18.6127 2.868
185 1 7.54837 19.0559 3.6186
187 1 11.634 18.2497 5.03391
197 1 2.85978 23.8319 3.79787
199 1 7.5044 24.282 4.05476
201 1 12.2127 22.0745 4.92446
203 1 16.275 23.5474 5.23533
120 1 19.1752 21.361 2.16139
122 1 23.5971 20.6667 3.08442
124 1 28.5376 21.74 3.85123
126 1 33.0924 21.4629 5.0758
5809 1 33.3902 10.184 13.9524
134 1 18.2798 25.8862 2.21879
136 1 22.6893 26.4695 3.19776
138 1 27.4238 26.1755 3.62087
140 1 32.1454 26.0551 3.99511
5861 1 33.1262 6.36694 20.0782
142 1 4.64294 7.53937 7.36393
144 1 8.76137 8.02739 7.91246
146 1 13.8957 7.90816 8.40101
1687 1 15.125 27.9821 17.5469
148 1 18.393 7.53363 8.73985
5835 1 33.583 19.1631 13.848
156 1 4.84771 12.359 6.89673
158 1 9.22419 12.1302 8.07233
160 1 14.0907 12.2541 7.85257
161 1 16.2415 10.6551 5.0406
162 1 18.0181 11.8945 8.14618
163 1 20.6508 9.80909 5.54109
165 1 25.37 10.2791 6.51693
167 1 29.548 10.788 7.04533
1685 1 10.0211 27.7639 16.6767
175 1 16.4136 14.9996 5.11093
177 1 20.8463 15.2614 5.5051
179 1 24.7647 14.4623 6.70232
181 1 30.6224 14.5217 7.26276
1613 1 6.47328 28.1318 10.4009
1479 1 21.2012 28.3384 -0.442904
170 1 4.2817 16.4676 6.81552
172 1 9.10792 16.0241 7.7546
174 1 13.9205 16.8378 8.33392
189 1 16.0764 19.5742 4.94146
176 1 18.4756 16.8118 9.14996
191 1 20.8163 18.8431 6.24781
193 1 25.4638 19.0915 6.73825
195 1 29.7123 19.1511 7.53766
71 1 3.04468 5.85324 -2.71643
184 1 4.74402 21.1772 6.36026
186 1 8.62416 20.9795 7.39444
188 1 13.453 21.2565 8.27961
190 1 18.1464 21.3584 8.8537
205 1 20.9776 23.4382 6.11747
207 1 24.9737 23.6 6.44187
209 1 29.9708 24.0401 6.64225
349 1 29.0529 24.053 19.2982
198 1 4.68362 25.8704 6.59413
200 1 9.28616 25.851 7.21037
202 1 13.362 25.4427 7.23064
204 1 17.6729 25.5186 9.00958
334 1 26.3707 21.7115 22.328
365 1 1.46236 10.1382 21.8444
32 1 10.594 16.5299 -4.96937
348 1 26.4965 26.4999 21.8394
367 1 6.21872 10.1818 22.2695
150 1 22.6061 8.21282 9.38715
152 1 27.1995 8.5272 9.30726
154 1 31.7836 8.19602 10.1666
70 1 32.8846 26.0897 -1.93363
225 1 2.47239 10.1637 9.84038
227 1 6.72699 10.2217 10.6302
229 1 11.0582 9.58385 11.5191
231 1 15.7104 9.97469 11.6205
164 1 22.8652 11.7857 9.24629
166 1 27.3164 12.3409 9.95723
168 1 31.6529 12.901 10.7108
239 1 2.22529 14.0778 9.81995
241 1 6.18289 14.7148 9.8861
243 1 11.5763 14.1562 11.0796
245 1 16.0214 14.5356 11.4963
247 1 20.406 14.7428 12.9148
253 1 2.19277 19.1817 9.64733
255 1 6.39651 18.8351 9.9958
257 1 10.6936 18.6205 10.6676
259 1 15.8244 19.1857 11.3484
178 1 22.6605 17.3294 9.65584
261 1 20.2732 19.0894 12.1272
180 1 27.3513 16.8785 10.5396
182 1 31.7196 17.4605 10.3982
267 1 2.19137 23.7128 9.85254
269 1 6.92913 23.5394 9.85399
271 1 11.1558 23.3436 10.6079
273 1 15.4393 23.5964 11.5529
275 1 19.9448 23.9873 12.6274
192 1 22.6117 21.3983 9.676
194 1 27.306 21.6054 9.7762
196 1 31.8851 22.2841 10.3593
1619 1 19.6043 27.794 12.1909
332 1 22.0959 21.4883 21.4922
206 1 22.2078 26.0384 9.59387
208 1 26.2048 25.8161 9.32991
210 1 32.0565 26.2672 10.7069
212 1 4.38038 8.11059 13.0347
214 1 8.68193 8.01968 14.4982
216 1 13.4329 8.14588 14.5271
218 1 18.0076 8.08466 15.3602
308 1 30.3278 12.2485 22.5399
220 1 22.2575 7.90119 15.829
346 1 21.9866 26.3845 21.2912
344 1 17.375 26.1841 20.2363
295 1 1.80822 10.1405 16.123
226 1 3.80451 12.9062 13.4847
228 1 8.42719 12.2142 13.9559
230 1 13.6973 12.1311 14.3832
232 1 17.9201 12.1294 15.0979
233 1 19.7887 9.94267 12.2969
235 1 24.7486 10.5157 12.8013
237 1 29.1344 9.9677 13.5654
1689 1 19.6705 28.2491 17.8043
242 1 8.5604 16.5846 13.9284
246 1 17.2254 16.9407 15.1953
249 1 24.9948 15.0855 13.2671
251 1 29.3125 14.9287 13.4012
1551 1 25.1744 28.1703 6.2855
323 1 1.7778 19.9073 16.0583
240 1 4.06887 16.7029 13.1924
244 1 13.096 16.9811 14.3661
248 1 22.4132 16.7995 15.4475
263 1 25.256 19.6912 12.9129
265 1 29.7815 19.4145 13.3182
1483 1 29.645 28.0648 0.858729
254 1 3.72011 21.3468 12.7575
256 1 8.54018 20.7902 13.2511
258 1 12.9729 20.8233 13.9692
260 1 18.1837 21.2706 14.5064
262 1 22.6036 21.5102 15.477
277 1 25.3727 23.9392 12.4902
279 1 29.3243 24.1827 12.7343
153 1 29.4044 6.07637 7.14025
268 1 3.88595 25.7758 12.886
270 1 8.38699 26.4484 13.172
272 1 13.1009 25.6593 13.976
274 1 17.2184 25.3097 15.5158
276 1 22.0418 25.9896 15.3786
221 1 25.147 6.01012 12.3956
1681 1 1.23013 28.1388 16.0167
5913 1 33.4124 24.2882 20.2462
282 1 3.55818 7.49305 19.6427
1623 1 28.8882 28.325 13.0725
330 1 17.5225 21.758 20.9407
222 1 27.052 8.09299 16.1265
224 1 31.2012 8.07825 16.6183
296 1 3.60813 12.1274 19.2923
297 1 6.21991 10.2328 16.6211
299 1 10.7906 10.3674 17.6383
301 1 15.3562 10.2183 17.4958
234 1 22.478 11.8398 15.4541
303 1 20.5 10.3058 18.3729
305 1 24.6872 9.95888 19.2449
236 1 26.9124 12.6834 16.7833
307 1 29.2946 9.96378 19.7486
238 1 31.4466 12.7158 16.0362
309 1 1.01277 14.3602 16.3793
310 1 3.67869 16.8479 19.1635
311 1 6.21772 14.9437 16.7471
313 1 10.447 13.9961 16.9275
315 1 15.5295 14.8094 17.7736
317 1 20.127 14.4263 17.5885
252 1 31.6492 17.3069 16.7518
325 1 6.08833 18.9599 15.8978
327 1 10.4874 18.8666 16.7291
329 1 15.6196 19.4187 17.6512
331 1 20.2542 19.2078 17.6795
333 1 24.6149 19.3075 18.5925
335 1 29.1016 19.2893 19.2768
250 1 26.9153 17.2143 15.9794
337 1 1.33223 24.0034 15.8295
324 1 3.90838 21.3278 19.2462
339 1 6.38449 23.3851 15.9492
341 1 10.1735 23.6012 16.4774
343 1 14.4807 23.4271 17.6187
345 1 19.997 23.7485 18.8971
347 1 24.6157 23.8554 18.5732
264 1 27.2239 21.8835 16.1111
266 1 31.6319 21.8855 17.0566
338 1 4.17585 26.0745 19.1024
7096 1 33.688 28.4408 13.6638
83 1 30.5854 6.04558 0.624181
1683 1 6.31298 27.9994 16.0714
328 1 12.1532 21.7101 19.837
278 1 26.5163 26.5283 15.7775
342 1 11.9873 26.0287 20.2099
280 1 30.935 26.8329 17.0359
284 1 8.10784 7.61735 20.1757
286 1 12.7237 7.43049 20.2903
288 1 16.9804 7.94634 21.3086
290 1 21.5889 7.75581 22.1177
340 1 8.03007 25.9435 19.7182
292 1 26.4943 7.87827 22.355
326 1 7.94988 21.2959 19.7627
73 1 7.76824 6.29938 -2.17839
298 1 8.51423 12.4827 20.1005
300 1 12.8435 13.0498 20.859
302 1 17.6423 12.6016 21.025
304 1 21.9133 12.9772 21.7769
7161 1 33.458 28.4379 19.9958
5874 1 33.492 11.0507 19.6376
379 1 1.20952 14.9038 22.1714
1547 1 15.7574 27.9525 5.45101
314 1 12.8816 17.6507 20.5121
316 1 17.8033 17.2136 21.0447
318 1 22.1189 17.6052 21.4923
319 1 24.5112 14.5658 19.0485
321 1 28.765 14.6245 19.3966
5887 1 32.8611 14.7903 19.9749
320 1 25.9897 17.4531 22.7271
393 1 1.67746 18.7367 21.9028
312 1 8.72447 16.6356 20.3227
223 1 28.9009 6.07228 12.939
5900 1 33.4356 19.2299 20.3381
407 1 1.35951 23.858 22.4056
1553 1 29.7322 28.0384 7.17047
1617 1 15.4342 28.4093 11.7168
306 1 25.9179 12.8049 22.6719
381 1 5.90676 14.5735 22.8163
60 1 10.6459 25.806 -5.0725
46 1 10.42 21.2849 -5.16047
4 1 10.1298 8.15102 -5.12721
352 1 3.18493 7.95601 24.9478
354 1 7.80365 8.34955 25.6283
640 1 20.657 8.40415 51.062
463 1 1.16603 19.3831 28.2891
366 1 3.53889 12.5423 25.185
368 1 7.87826 12.8425 26.0574
6134 1 33.8749 10.6038 41.0831
369 1 10.6131 10.2124 23.4608
371 1 15.4332 10.5069 23.865
373 1 19.1077 10.7076 24.6789
375 1 23.3005 10.3032 25.4788
377 1 27.8585 10.1533 25.974
5939 1 32.5054 10.3569 26.068
668 1 20.791 17.6592 50.7932
380 1 3.18291 16.8563 26.0327
383 1 10.4197 14.8657 23.4914
385 1 14.6983 14.9044 23.7461
384 1 12.4893 17.17 26.7689
387 1 19.426 14.8818 24.0696
389 1 23.8131 14.7612 25.3757
391 1 28.6405 14.8551 26.1115
6173 1 34.2201 23.8583 41.9741
397 1 10.1826 19.3161 23.517
399 1 14.6477 19.7404 23.372
401 1 18.6496 19.2184 24.1849
403 1 23.838 19.5406 25.3027
405 1 27.8648 19.6373 26.2516
394 1 3.61136 21.6969 24.8054
396 1 7.37458 21.9277 26.0664
411 1 10.3099 24.0936 23.4354
413 1 14.9958 23.602 23.1866
415 1 19.614 23.6995 23.6551
417 1 24.0009 24.0269 24.8626
419 1 28.6727 24.0272 25.5163
408 1 3.72018 26.0258 24.808
410 1 7.62748 27.22 25.8523
533 1 0.632199 19.3174 35.0436
412 1 12.1724 26.1951 26.2455
294 1 30.7456 7.57016 23.5049
425 1 9.78275 5.94167 29.6812
567 1 12.9681 6.15787 42.7445
356 1 12.2101 8.63913 26.6465
358 1 16.9363 7.96158 27.4451
360 1 20.9298 8.7505 28.4137
362 1 25.9268 7.59169 27.7158
364 1 30.3137 8.07874 29.2542
359 1 19.24 6.09543 24.5197
437 1 5.49772 10.3972 28.6048
439 1 9.73925 10.4641 29.4669
370 1 12.3157 12.3957 26.9981
372 1 16.7724 12.4788 27.8701
374 1 20.561 13.0318 28.1713
376 1 26.5743 12.634 28.5881
378 1 30.4595 12.0579 29.4381
449 1 0.824231 14.6938 28.4284
451 1 5.50304 15.0656 29.1641
453 1 9.65282 14.7799 29.8282
386 1 16.6998 16.9015 27.2479
388 1 21.4252 17.3261 27.4683
390 1 25.8979 17.2372 28.8096
392 1 30.3434 17.2866 28.858
5952 1 32.7598 15.0344 26.5868
691 1 7.40115 23.5526 48.9065
382 1 7.89054 17.4293 26.2344
465 1 4.9208 20.3993 28.4957
467 1 9.88302 19.2455 29.9092
5965 1 32.5688 19.7201 26.3844
573 1 28.0183 5.83918 42.5221
479 1 5.72612 24.2925 28.5932
481 1 10.1683 23.6328 29.6521
398 1 12.1055 21.714 26.8434
400 1 16.7654 22.0462 27.0218
402 1 21.4856 21.3892 27.871
404 1 26.0431 22.1948 28.5427
5978 1 33.3402 24.1948 26.3399
406 1 30.5424 21.7647 29.174
477 1 1.12181 23.3101 28.5639
414 1 16.7904 26.0394 26.7652
416 1 21.2973 25.6628 28.2873
418 1 25.8088 26.0276 28.377
420 1 30.2708 26.3984 29.2552
422 1 2.64509 8.02921 31.5665
424 1 7.06762 7.50551 32.1344
426 1 11.4867 7.86359 33.0121
350 1 30.4679 26.4768 23.0512
1895 1 9.17046 28.1869 36.2457
436 1 2.53752 12.4624 31.5798
438 1 6.66144 12.2718 32.51
440 1 11.961 12.7205 32.8644
441 1 14.6321 9.83272 30.7266
443 1 18.9318 10.3076 31.6125
445 1 24.1459 9.46533 31.2836
447 1 27.7354 9.87716 32.7205
6004 1 33.3845 10.485 32.7544
450 1 2.69894 17.0498 31.8702
452 1 7.14254 17.135 33.1239
455 1 14.2825 15.1039 30.2225
454 1 11.5079 17.5069 33.1267
457 1 18.2365 14.9185 30.8042
459 1 23.5109 15.2415 31.056
461 1 27.972 15.3437 32.2825
6017 1 32.0934 15.0413 32.4716
469 1 14.5012 19.8649 30.4557
471 1 18.2966 18.9434 30.2765
473 1 22.8681 19.8871 31.2394
475 1 27.6057 19.6444 31.9119
6030 1 31.6999 19.442 33.1134
464 1 3.20561 21.6497 31.8271
466 1 7.0284 21.7016 32.3915
468 1 11.5654 21.9571 33.3973
483 1 14.0548 24.3238 30.1149
485 1 17.8268 23.6475 30.4173
487 1 23.1003 23.9501 31.4722
489 1 27.7335 23.483 31.698
6043 1 32.3398 24.023 32.6775
478 1 2.6391 26.3793 31.6041
480 1 7.20124 26.24 32.209
482 1 11.826 25.8053 33.0002
435 1 0.819466 10.0584 27.8996
484 1 15.975 26.2297 33.7208
674 1 1.47421 21.5022 50.0259
639 1 16.9141 5.97336 50.0514
6147 1 34.0561 14.3968 42.1524
688 1 0.730372 26.1192 51.0861
1971 1 21.7917 28.3318 43.866
428 1 15.9325 7.79608 33.9231
430 1 20.6376 7.85474 33.9498
432 1 24.8991 7.85457 34.7694
434 1 29.675 8.22659 35.6278
507 1 4.37471 9.93282 35.0608
509 1 8.65572 10.1485 34.8799
511 1 12.9495 10.0324 36.4795
442 1 15.981 11.9845 33.7588
444 1 21.0771 13.2656 34.4132
446 1 25.3521 12.4767 34.467
448 1 29.8346 12.5756 35.3238
6069 1 33.3898 10.5367 36.4713
521 1 4.45081 15.0631 34.8708
523 1 9.4274 14.4892 35.7012
525 1 13.3653 14.507 35.8714
456 1 16.0148 16.9185 33.952
458 1 20.708 17.0915 34.0092
460 1 25.0273 17.8521 35.0261
462 1 29.6057 17.3766 35.5852
6082 1 32.8255 14.7992 37.649
1969 1 17.7612 28.322 43.7455
535 1 5.13172 19.5719 35.196
537 1 9.44654 20.1772 36.0507
539 1 13.7168 19.1364 36.7302
470 1 16.0982 21.6624 33.5296
6095 1 33.401 19.6214 37.054
549 1 4.3255 24.2056 35.3506
551 1 8.8167 24.1157 35.2381
553 1 13.8263 23.9766 36.9092
555 1 17.7165 23.9149 37.0645
472 1 20.5862 21.8643 33.788
474 1 25.1443 21.999 34.8385
476 1 29.7895 21.8447 35.5726
700 1 32.1709 26.0743 49.0407
336 1 30.7857 21.8561 23.0855
679 1 12.1944 19.452 48.6672
322 1 30.2452 17.0977 23.2187
569 1 17.3079 6.5194 43.5325
486 1 20.595 26.4242 34.2978
488 1 25.3431 26.3236 34.5361
490 1 29.2295 26.1866 35.5256
492 1 1.71613 7.92899 38.1816
494 1 6.26866 7.84823 38.566
496 1 10.8976 8.19194 39.2231
498 1 15.5953 8.56777 39.8362
5991 1 32.2178 6.03396 32.4321
504 1 31.2132 7.84116 39.7801
506 1 2.03186 12.6444 37.9306
508 1 6.28445 12.3821 38.4659
510 1 10.7956 12.8583 39.4565
513 1 18.292 10.7647 36.8376
515 1 22.7108 10.0894 37.5768
517 1 26.8811 10.0296 38.0597
518 1 30.483 12.3628 39.7689
524 1 11.3235 17.0293 39.2114
527 1 18.0751 14.6587 36.9248
526 1 15.7552 16.9797 39.8711
529 1 22.6248 14.76 37.7542
531 1 26.7617 14.8546 38.3584
520 1 2.10475 16.8331 37.8383
522 1 6.81617 17.0362 38.3928
541 1 18.0748 19.3962 36.9478
543 1 22.5978 19.7617 37.5092
545 1 27.2433 19.5848 38.4242
532 1 30.7287 17.0003 40.1204
534 1 2.53537 21.6117 38.5324
536 1 6.24514 21.6803 39.0623
538 1 10.888 21.4544 39.5575
540 1 15.6434 21.5644 40.3775
542 1 20.3114 21.9204 40.3417
557 1 22.4901 24.0509 36.9975
559 1 27.1582 24.0451 38.1172
6108 1 33.3881 24.2337 36.8192
546 1 30.2919 22.0306 39.9307
548 1 1.96533 26.1314 37.967
550 1 5.79896 25.7789 38.4421
552 1 10.7782 26.0016 39.0857
554 1 15.3733 26.2587 40.3725
556 1 19.9337 25.8239 40.5998
633 1 3.62196 5.87824 48.0019
560 1 30.8994 26.3678 39.536
1965 1 8.34317 28.3294 41.4984
500 1 20.1838 8.00534 40.8359
502 1 24.3859 7.7664 40.6199
433 1 27.6439 5.79035 32.239
577 1 4.00657 10.2227 41.6111
579 1 8.14987 10.4811 42.1428
581 1 12.1787 10.2325 42.1383
512 1 15.5418 12.6341 39.2979
583 1 17.7504 10.3533 43.1037
514 1 19.7869 12.4987 40.7445
516 1 24.5394 12.3644 40.7396
587 1 27.7776 9.98753 43.0454
591 1 4.08602 14.2483 40.9626
593 1 8.29923 14.9313 41.9536
595 1 13.0062 15.2034 42.3606
597 1 17.5391 14.21 43.4154
599 1 22.1614 14.7508 43.9278
530 1 24.8202 17.3122 41.0323
601 1 27.7124 14.7072 42.4687
605 1 4.66011 18.9236 41.0223
607 1 8.62445 19.1597 42.3754
609 1 13.2617 19.6878 42.8525
611 1 17.1099 18.8297 42.9822
528 1 20.3898 17.0515 40.227
615 1 28.7073 19.4451 42.7985
619 1 3.19521 24.0004 41.7204
621 1 7.76181 23.7748 42.2907
623 1 12.4615 24.0875 42.9496
625 1 17.6126 23.6444 43.2331
627 1 21.9779 23.6212 44.1206
544 1 24.8978 21.3546 41.1311
629 1 28.2624 24.2543 42.7214
618 1 1.45344 26.0589 44.3708
684 1 26.6769 21.8219 49.7176
2037 1 12.27 28.1971 49.1486
683 1 23.1378 19.4704 48.0508
686 1 32.9299 22.0057 48.8825
558 1 24.2625 25.8639 40.6773
697 1 22.6628 24.0169 48.7391
698 1 26.4334 26.45 49.6461
562 1 1.95352 8.04968 44.2723
564 1 5.70056 7.44946 44.976
566 1 10.1099 7.53263 45.1785
568 1 15.0528 8.25134 46.1876
570 1 19.3397 7.91802 46.5758
677 1 8.13097 18.902 47.9527
572 1 25.6281 8.03777 45.8566
695 1 16.4651 23.8253 49.7062
574 1 31.5701 7.58795 43.7534
576 1 1.36468 12.8461 44.4068
578 1 5.66318 12.2325 44.7458
580 1 10.3507 12.2605 45.7263
582 1 14.4377 12.8731 45.3577
585 1 22.3436 10.2816 44.1579
584 1 19.0098 12.6056 46.5611
586 1 25.7555 12.7194 45.7668
657 1 29.3824 10.1243 47.2729
588 1 31.2952 12.1432 44.4364
590 1 1.94629 17.2553 43.6459
592 1 5.44238 16.8708 44.9401
594 1 10.9457 16.9972 45.9251
596 1 14.9474 16.7204 46.1867
600 1 25.5672 17.4671 45.6556
671 1 28.6006 14.6297 47.3701
602 1 31.7424 16.6636 45.0182
613 1 21.9156 19.5447 43.7372
598 1 19.5106 17.1742 46.5372
685 1 29.8605 20.095 47.7129
604 1 1.85229 21.2443 43.8633
689 1 3.12603 24.0875 47.4676
606 1 5.45238 21.8771 44.5064
608 1 10.3109 22.311 45.5271
610 1 14.7843 21.2328 46.1812
612 1 19.4119 21.7552 46.9074
614 1 25.769 21.3959 45.6877
699 1 29.4103 24.0233 47.1581
616 1 31.9247 21.9622 44.3525
693 1 11.8136 24.2591 48.915
620 1 6.0805 25.993 45.0763
622 1 10.2291 26.5162 45.1
624 1 14.6656 25.9512 46.0142
626 1 19.0631 25.8786 47.0227
628 1 25.5761 26.2538 45.7144
681 1 17.0411 19.0049 49.581
630 1 32.0611 26.5614 44.0719
1963 1 3.8573 28.347 41.5983
565 1 8.55663 6.06188 41.5923
642 1 26.339 7.96949 50.0149
644 1 32.8313 8.00243 48.8582
647 1 3.4156 10.5834 47.8641
646 1 0.809092 12.1066 50.4859
7356 1 33.2914 28.2563 36.5886
649 1 8.13538 10.2469 48.065
651 1 12.2909 10.5512 49.3928
653 1 16.8223 10.518 49.493
655 1 22.7157 10.5053 48.5349
656 1 26.9011 12.7446 50.2878
658 1 32.774 12.7367 48.5663
661 1 3.28583 14.5261 48.2292
663 1 7.82489 14.7002 48.3871
665 1 12.4921 15.0651 49.0104
667 1 17.0215 14.4105 49.4305
669 1 22.7547 14.951 48.6223
670 1 27.0407 17.3488 49.9231
672 1 31.985 17.3566 49.3365
675 1 3.46215 19.0777 47.6225
6056 1 33.4272 5.88834 37.1037
1821 1 1.07303 27.9937 28.0147
563 1 4.30745 5.95108 41.6369
1825 1 9.46281 28.1675 29.5928
1757 1 14.6982 27.6824 23.7604
6160 1 33.5998 19.172 41.5489
361 1 23.3877 5.97001 25.3652
632 1 0.569228 8.21186 50.4627
2035 1 8.30497 27.4011 48.7794
1829 1 18.5869 28.1382 30.5121
7291 1 32.4772 28.4247 32.8331
1761 1 24.4934 28.3067 24.7291
1759 1 18.7415 28.2297 24.1942
395 1 5.78556 18.8401 22.9765
409 1 6.01796 23.5765 22.9447
912 1 0.75282 7.92355 73.5124
636 1 10.2767 7.88356 51.2997
638 1 14.1397 8.12716 52.4927
712 1 27.5679 8.52392 54.5775
717 1 2.4875 10.1993 54.046
719 1 7.04129 10.3476 54.7374
650 1 10.0385 12.4422 51.7336
652 1 14.6569 12.6212 52.8557
723 1 18.1984 9.91663 54.0198
654 1 20.4072 12.9578 51.108
725 1 24.1288 11.1581 52.8911
726 1 27.8973 12.3858 54.5341
728 1 33.9236 12.216 53.0889
727 1 30.1832 10.4214 51.7933
731 1 2.37953 14.614 53.9975
733 1 6.93443 14.3524 54.6951
737 1 17.9344 14.9738 54.0739
739 1 24.16 15.4867 53.0051
741 1 30.1901 14.9514 51.8169
745 1 2.39021 19.2784 54.1434
664 1 9.26024 17.1078 51.7657
666 1 14.6437 17.4227 52.28
751 1 17.7622 19.2489 54.1247
682 1 20.3992 21.9626 51.265
753 1 24.2282 19.4588 53.0562
968 1 0.594741 26.1218 73.6405
759 1 2.23036 24.0101 54.352
678 1 9.39367 21.0999 51.818
680 1 14.3236 21.7489 52.1973
765 1 18.0218 23.9745 54.0557
767 1 24.0362 24.0869 52.8566
769 1 30.3069 23.6327 51.526
926 1 0.691883 13.2292 74.4262
1091 1 33.5884 15.1391 75.675
692 1 9.84132 26.2005 52.0334
694 1 14.6256 26.4925 52.0595
662 1 4.76525 16.9396 51.2583
730 1 0.730747 17.5246 57.2761
768 1 27.5811 26.4964 54.341
996 1 1.21315 13.0843 78.3669
770 1 33.9645 26.3 53.3319
704 1 5.03368 7.8195 56.9912
2105 1 6.59025 28.2096 54.2154
706 1 9.53488 7.41236 57.7878
756 1 33.7184 21.3988 53.5179
708 1 14.9217 8.07875 56.9002
710 1 21.635 8.41796 55.407
1118 1 31.5465 26.3666 78.54
718 1 5.04115 12.4052 57.3065
720 1 8.84246 12.5271 58.4289
721 1 11.52 10.0854 55.4654
722 1 15.5702 12.7156 56.6865
724 1 21.2071 12.3357 55.0562
795 1 24.8954 10.0277 57.3728
797 1 31.8231 9.76798 55.9473
732 1 4.81131 17.4227 57.1376
734 1 9.37069 16.9847 57.6441
735 1 11.717 14.4989 54.6584
738 1 20.9793 17.0142 55.3099
809 1 24.7436 14.3176 56.6208
740 1 27.5803 16.9516 54.6945
811 1 30.9092 14.3186 56.2531
747 1 7.25051 19.0297 54.1387
749 1 12.1958 18.8841 55.0864
736 1 14.9856 16.8417 56.8173
823 1 24.7091 19.4787 56.9256
825 1 31.1084 19.2534 56.7834
676 1 5.48448 21.2621 51.1595
761 1 6.92157 23.6092 54.3102
746 1 4.78352 21.7567 57.3269
763 1 11.7132 24.2415 54.6214
750 1 14.5151 21.5041 56.9196
835 1 18.8823 24.0132 58.328
752 1 21.6119 21.6631 55.4346
837 1 25.0955 24.0679 57.4733
754 1 27.5403 21.4084 54.2676
839 1 31.119 23.8038 56.2281
760 1 4.88105 26.278 57.6264
764 1 15.3619 26.1416 56.8946
766 1 21.7142 25.9385 56.1383
1049 1 33.9942 23.6592 70.368
714 1 33.7009 7.57287 53.402
648 1 5.61327 12.2464 51.4738
779 1 18.735 5.81463 58.2319
778 1 16.5739 8.07394 60.8657
780 1 22.6528 7.72251 60.0402
1114 1 21.3722 25.8121 79.1582
782 1 28.4997 7.56832 58.5132
1021 1 33.655 14.7369 69.496
787 1 2.25088 10.194 60.294
789 1 6.88539 10.1941 60.6417
791 1 12.6487 10.0623 59.8479
793 1 19.4636 10.4226 57.8676
792 1 16.4036 12.3652 60.9386
794 1 22.877 12.6157 60.0572
796 1 28.8595 12.3494 58.7173
867 1 32.6785 10.4881 60.3374
801 1 2.12863 14.7913 60.6956
803 1 6.73325 14.8345 60.7307
805 1 12.9991 14.3838 59.1227
807 1 18.8756 14.8829 58.1459
808 1 22.6801 17.0724 59.5353
879 1 25.785 14.9271 61.9138
881 1 32.0979 15.2642 60.5329
815 1 2.11857 19.3725 60.3593
817 1 6.66938 19.4641 60.5234
819 1 13.0859 19.1062 59.5036
806 1 16.3035 17.0098 61.4604
821 1 18.5639 19.4365 58.3578
893 1 25.9647 19.6605 61.5802
810 1 27.7943 16.399 58.8228
895 1 32.4679 19.2534 61.0171
829 1 1.91125 24.029 60.3314
831 1 6.40369 25.0861 61.7706
748 1 9.44535 21.4128 57.3989
833 1 12.6903 23.887 59.9062
820 1 16.7209 21.7273 61.1416
822 1 22.429 21.3132 59.9921
824 1 28.5096 21.2306 59.0222
909 1 32.2402 23.717 60.3806
2383 1 4.29173 28.3386 75.1171
762 1 8.97822 25.7669 57.8793
834 1 16.2308 26.0922 61.4258
716 1 0.649093 12.8738 57.4318
836 1 21.9886 25.6858 59.7026
690 1 5.13765 25.8106 51.306
838 1 28.861 26.037 58.269
1116 1 26.8554 26.0914 78.3782
774 1 4.94343 7.71789 63.232
776 1 10.4052 7.88187 62.3411
849 1 19.8065 5.7655 62.7294
850 1 23.5326 8.04578 64.5905
852 1 29.7225 8.13208 63.0789
2173 1 2.19606 28.4005 60.1241
788 1 3.7268 11.7914 63.8676
790 1 10.5669 12.3307 62.1876
861 1 13.8351 10.9624 64.2186
863 1 20.2645 9.9967 62.5937
865 1 26.2684 10.0917 61.8363
864 1 23.3921 12.6605 64.5302
866 1 29.5908 12.8547 63.2329
937 1 33.2473 10.3494 64.2204
875 1 13.8321 14.8575 64.0938
877 1 20.2123 15.6464 62.341
802 1 3.98524 17.1107 63.4071
804 1 10.429 17.0454 62.4489
889 1 13.8964 19.6277 63.9714
891 1 20.0335 19.6885 62.4352
878 1 23.4619 17.368 64.1495
880 1 29.4688 17.6194 63.1952
1033 1 33.5202 19.739 64.7772
816 1 4.05624 21.7235 63.6502
818 1 10.309 21.7527 62.9513
903 1 13.5681 23.7462 64.6762
905 1 20.1441 24.5246 62.8595
907 1 25.8151 24.3146 61.4118
892 1 23.4142 21.8044 64.7395
894 1 29.5683 22.0506 63.6194
964 1 33.4301 23.8148 64.9399
830 1 3.30738 26.1474 64.138
1058 1 20.6581 7.44891 78.4715
832 1 10.446 26.3741 62.3214
913 1 2.714 6.07477 70.6957
2249 1 20.4935 28.364 62.8313
906 1 23.7524 26.5678 63.9679
908 1 29.9116 26.2984 63.0801
742 1 34.0268 17.0277 53.7524
844 1 5.01565 8.54413 67.7124
846 1 11.6706 8.15829 66.0649
940 1 0.52542 17.814 73.6846
848 1 17.3361 9.23253 65.8135
1042 1 13.4799 26.0652 75.5251
922 1 31.1306 7.94923 67.785
857 1 1.05128 11.2904 66.7319
858 1 5.32624 12.5764 68.267
859 1 7.79882 10.6472 64.7765
860 1 11.3572 12.9989 66.6967
931 1 14.9838 10.3143 68.4249
862 1 17.8603 13.0253 65.2281
933 1 21.1792 10.3044 67.0876
935 1 27.0712 10.347 66.3278
936 1 31.1131 11.8472 67.6575
871 1 1.60936 14.9725 66.7169
873 1 7.32896 14.5537 64.6414
874 1 11.7012 17.6155 67.0121
945 1 15.0285 14.9924 68.0937
876 1 17.58 17.5149 65.7593
947 1 21.5988 14.7333 67.585
949 1 27.2054 15.4562 66.4352
950 1 30.736 16.5548 67.8021
951 1 32.4839 14.8293 64.9639
885 1 2.13127 19.5733 66.6583
872 1 5.6724 17.1615 67.8636
887 1 7.7368 19.3742 64.7103
959 1 15.0049 19.2667 68.5306
961 1 21.4076 19.6391 67.5031
963 1 27.1976 19.2309 65.9776
899 1 1.77024 23.8431 66.7158
886 1 5.23517 21.4889 67.9175
901 1 8.4208 23.7009 65.8434
888 1 11.4039 21.7044 67.2798
973 1 15.1913 23.9976 69.0786
890 1 17.7452 21.5884 65.7554
975 1 21.1144 24.1779 67.189
977 1 27.2639 23.976 65.8142
1035 1 30.823 21.4163 67.8211
900 1 5.60998 26.2009 68.2538
902 1 11.9117 26.7207 66.7203
904 1 17.5352 26.2018 65.2219
1104 1 31.1475 22.307 78.949
2457 1 17.4523 28.1791 77.9881
978 1 30.5656 26.0692 68.0825
1040 1 7.99888 26.0512 77.0234
916 1 12.7065 7.70214 70.4616
2387 1 16.2777 27.9035 73.2074
918 1 18.624 7.58116 70.065
983 1 3.55543 5.76794 75.2748
920 1 24.227 7.94104 68.7251
992 1 32.4697 8.65812 72.1534
927 1 2.39459 10.6497 70.9859
929 1 8.88886 9.78459 69.2393
930 1 12.3923 12.1036 70.9019
932 1 18.6178 12.2129 69.2988
1003 1 21.8927 10.2147 71.5407
934 1 24.6653 12.5797 69.3065
1005 1 28.9876 10.5656 70.5222
1006 1 31.7627 12.5881 71.9945
941 1 2.73607 15.34 71.0947
943 1 8.98716 14.8991 69.8996
944 1 12.3838 17.0983 71.5078
946 1 18.6378 16.7572 69.4841
1017 1 22.2163 14.7411 71.7591
948 1 24.667 17.2923 68.6772
1019 1 28.1122 15.389 70.7313
955 1 3.25514 19.8602 70.5631
957 1 8.44076 19.4198 70.0543
1031 1 22.1704 19.1658 72.0421
1020 1 28.1875 19.456 71.0261
755 1 30.2317 19.6129 52.266
969 1 3.30913 24.0311 70.5337
971 1 9.49343 23.9786 69.8274
958 1 12.1659 21.8854 71.4599
960 1 18.8412 21.2066 70.2546
1045 1 22.3238 23.909 71.7146
962 1 24.4809 21.6402 68.7091
1047 1 28.2883 23.7473 70.0991
991 1 28.0213 5.75224 70.4993
1038 1 1.39722 26.085 78.3457
705 1 7.50333 5.97632 54.2745
972 1 12.7045 26.217 71.1879
974 1 18.5504 26.4099 70.5307
976 1 24.9112 26.5701 68.6542
914 1 5.93831 7.79189 72.2847
1119 1 33.8173 24.0925 75.7171
988 1 19.5277 7.66299 73.9813
990 1 26.0422 8.2324 73.1869
928 1 6.02977 12.4938 72.7986
999 1 10.1806 10.0663 73.8206
1001 1 16.3357 9.78463 72.3383
1002 1 19.0012 12.646 74.3306
1004 1 25.437 12.4982 73.2172
1075 1 29.4489 10.6773 74.9463
1011 1 4.17583 14.1112 75.47
942 1 6.50743 17.0669 72.7106
1013 1 9.83206 14.9317 73.7883
1015 1 15.6943 14.8832 72.7893
1018 1 25.8283 17.324 73.597
1089 1 28.9304 14.9217 75.2518
1022 1 31.5934 17.1155 72.2039
1025 1 3.81026 19.5407 75.6862
1027 1 9.77965 19.8149 74.2795
1029 1 15.7186 19.3876 73.155
1016 1 19.5889 17.2757 74.1099
1103 1 29.4824 19.5043 75.4463
1039 1 4.08755 23.7847 75.2256
956 1 6.6894 21.9047 72.6531
1041 1 10.0596 24.2556 74.5962
1043 1 17.0431 23.9474 73.2708
1030 1 19.789 21.1945 74.7442
1032 1 25.7669 21.6883 73.5905
1117 1 29.9496 24.4704 75.4854
1034 1 31.6834 21.4572 72.6482
1077 1 34.0428 10.4763 75.5062
970 1 6.5054 26.5263 72.6162
2455 1 11.5074 28.3694 79.2019
1044 1 20.3293 26.4299 74.6389
1046 1 26.3133 25.4908 73.954
1048 1 31.7546 26.2251 72.6599
982 1 1.68961 8.44065 77.963
984 1 7.53666 7.87995 76.7208
986 1 14.0427 8.03995 75.6835
2109 1 17.7432 27.7515 54.1623
1060 1 26.7143 8.39068 77.0935
2319 1 21.0581 28.1923 67.3583
1062 1 31.3457 8.31827 78.1402
997 1 4.43713 10.2376 75.3286
915 1 8.72499 5.84467 68.9096
998 1 7.93852 12.4223 77.2113
1069 1 11.6725 10.2163 78.0119
1000 1 13.5662 12.4682 75.3142
1071 1 17.5799 10.6629 77.1077
1072 1 21.3132 13.0942 78.6189
1073 1 22.8699 10.4868 75.822
1074 1 26.7316 12.4279 77.7781
1111 1 11.4802 23.7165 78.7504
1076 1 31.4345 12.9824 78.7729
1010 1 1.05194 17.1551 78.3772
1012 1 7.22825 17.1077 77.4157
1083 1 10.9111 14.6503 78.2219
1085 1 17.5843 15.3336 76.9645
1087 1 23.4943 15.4753 76.353
2245 1 8.11974 28.0799 65.0462
1097 1 11.1434 19.3382 78.5481
1014 1 13.3879 17.0951 75.9004
1099 1 16.7175 19.5921 77.8529
2251 1 26.7097 28.2914 61.8869
1101 1 23.0864 19.338 76.4115
1088 1 26.9019 17.8632 78.3359
1090 1 31.435 16.9618 78.6733
1105 1 34.121 19.3754 76.1286
1024 1 1.47467 21.8686 78.5164
1026 1 7.36433 21.9622 77.2983
2111 1 24.2037 28.3332 53.3918
1028 1 13.8704 21.732 75.8024
1113 1 17.68 23.7487 77.3212
696 1 20.4114 26.0126 51.6552
1115 1 23.3781 23.6358 76.9897
1102 1 26.4535 21.6645 78.059
2253 1 32.8476 28.216 60.665
2177 1 12.7494 28.034 59.4794
2313 1 3.16937 28.3911 70.6667
2247 1 14.1064 28.3513 63.9918
2389 1 22.0869 28.3043 71.7832
985 1 10.9462 5.94182 74.1904
1063 1 33.7602 6.1033 75.5925
917 1 15.2946 5.8721 68.2426
851 1 25.9227 5.86715 61.9201
843 1 1.30801 6.01281 66.8122
634 1 5.47558 7.80022 51.221
1054 1 8.52843 7.93375 81.4749
1056 1 14.9851 8.20623 79.6371
1343 1 31.4331 5.76959 100.945