ITEM: TIMESTEP
383000
ITEM: NUMBER OF ATOMS
16000
ITEM: BOX BOUNDS pp pp pp
4.0854202033899156e-01 1.0179145797966359e+02
5.7002171911392097e+00 9.6499782808853880e+01
-5.1600394930555709e+00 1.0736003949305231e+02
ITEM: ATOMS id type x y z
287 1 15.227 5.87715 17.6066
5783 1 34.0547 23.5718 7.18205
6 1 14.6579 7.88993 -3.96273
293 1 28.9033 6.54896 19.7903
8 1 19.3435 7.78729 -4.05225
10 1 23.6816 7.09475 -3.5787
12 1 28.3461 7.47722 -2.64095
14 1 32.6716 8.17099 -2.18983
85 1 3.25087 10.1163 -3.11074
87 1 7.14913 10.5609 -2.50935
20 1 14.7557 12.7349 -4.18951
22 1 19.2885 12.4207 -4.29175
24 1 23.6478 12.3393 -3.43259
26 1 28.3292 12.28 -2.75771
28 1 32.8549 12.5339 -2.02313
99 1 3.6181 14.6944 -3.06826
101 1 8.38967 14.9211 -1.63068
10969 1 0.666829 16.8404 6.37829
36 1 19.0501 17.0273 -4.09569
38 1 23.7657 16.9313 -3.08517
40 1 28.5605 16.921 -3.01479
113 1 3.4479 19.3729 -2.93884
115 1 8.23807 19.3884 -2.50746
34 1 15.2467 17.1536 -4.6993
117 1 12.2287 19.4475 -1.93226
42 1 33.2318 16.4559 -2.01538
127 1 3.76709 23.2854 -2.3961
129 1 8.48069 23.3725 -2.35303
10995 1 1.07463 25.7777 5.99926
48 1 14.7099 21.1467 -4.68503
50 1 19.7815 21.645 -3.89188
133 1 17.618 24.2878 -0.771893
52 1 23.9995 21.7246 -3.42369
54 1 28.7583 21.4859 -2.5034
56 1 33.4126 21.4357 -2.06457
1471 1 3.24718 27.9467 -2.92696
5913 1 33.9259 24.1259 20.3296
10904 1 0.958117 16.9825 -0.0194263
64 1 19.526 26.0923 -3.40891
66 1 23.9553 26.5493 -3.51035
68 1 28.7134 25.939 -3.15132
70 1 33.3073 26.0007 -2.40436
221 1 25.0308 5.85567 12.7361
10878 1 0.582265 7.37744 -0.301769
72 1 5.24484 7.69624 0.611094
74 1 9.76168 8.15903 0.630824
153 1 30.0922 5.74675 6.96812
10891 1 0.617594 12.6148 0.0693802
86 1 5.19506 12.2957 0.767227
88 1 9.83964 12.6527 1.42286
89 1 11.7585 10.6958 -1.38704
90 1 14.6959 12.7359 1.60312
91 1 16.4042 10.3205 -1.06271
93 1 21.6137 10.3652 -0.676131
95 1 25.4565 9.99289 0.115707
97 1 30.5009 10.0722 0.836968
100 1 5.53939 16.9996 0.66011
103 1 12.4562 14.7645 -1.7452
105 1 17.1854 15.0453 -0.979827
107 1 21.4043 14.7159 -0.701555
109 1 26.1492 14.4589 -0.145639
111 1 30.8538 14.7758 0.521566
149 1 20.9002 5.79151 5.94845
102 1 9.94357 17.8046 0.560242
104 1 14.615 17.3481 1.35371
119 1 16.7697 19.5895 -0.933218
121 1 21.4585 19.0368 -0.587708
123 1 26.0814 19.3646 -0.0498083
125 1 30.7246 19.5903 0.497131
10917 1 1.5099 21.3745 -0.226395
114 1 6.23525 20.8119 0.622293
116 1 10.2457 21.8365 1.59138
131 1 12.9206 23.9602 -1.32406
118 1 15.1559 22.0106 1.27987
120 1 19.1387 21.7031 2.63752
135 1 22.0905 23.6823 -0.294297
137 1 25.8733 24.142 0.16609
139 1 30.4544 23.4975 0.295647
10930 1 0.624903 25.5712 0.315709
128 1 5.39159 25.5565 0.446174
130 1 10.1052 26.4315 0.937919
132 1 14.6582 25.6347 1.65062
46 1 10.8791 21.4148 -5.19873
10956 1 0.429035 11.9373 5.86006
76 1 14.1305 8.48647 2.02771
5757 1 33.8248 14.6671 8.4536
77 1 16.7047 6.09851 -1.30671
78 1 18.7912 7.92736 2.22643
80 1 23.0197 7.39139 2.96208
82 1 28.0461 8.13324 3.19842
84 1 32.6004 7.64787 4.01406
155 1 2.65454 10.0993 2.4008
157 1 7.40063 9.97073 4.3119
159 1 11.3142 10.6032 5.00324
92 1 18.74 12.4649 2.43386
161 1 16.1286 10.9211 5.53293
94 1 23.2784 12.2562 2.58185
96 1 27.9793 11.8723 3.44283
98 1 32.7146 12.6243 4.41044
169 1 3.3663 14.7171 2.98902
171 1 7.26523 14.7493 4.05479
173 1 11.8811 14.9972 4.83104
175 1 16.59 14.7364 4.63674
183 1 3.17666 19.0412 3.55481
185 1 7.59708 18.7959 4.45794
187 1 12.2122 19.4175 3.95884
106 1 19.1879 16.9894 2.39659
189 1 16.5794 19.2286 5.2012
191 1 21.3181 19.4465 5.31207
108 1 23.8805 16.6959 2.60067
110 1 28.3574 16.4143 2.93054
112 1 32.2031 17.0467 4.06714
197 1 2.94358 23.5654 3.6052
199 1 7.80558 23.7246 3.90053
201 1 12.4281 24.0696 4.44325
203 1 17.1535 23.8869 5.25478
205 1 20.7651 23.8032 6.47272
122 1 23.8842 21.1328 2.55866
124 1 28.2645 21.9137 3.899
126 1 32.4725 20.9223 3.78017
134 1 19.2305 26.5017 2.22184
5848 1 34.0219 23.6936 13.4868
136 1 23.3059 25.4052 3.16192
138 1 27.9491 26.2217 3.20481
140 1 32.0073 25.9279 4.09495
142 1 4.83959 7.78876 5.942
144 1 9.50672 7.70319 7.29801
146 1 13.5426 8.20194 7.40573
148 1 18.042 8.22145 8.72692
62 1 15.4129 25.1329 -4.75049
217 1 16.005 6.07072 11.5606
156 1 5.08642 12.0499 6.6163
158 1 9.43326 12.3802 7.92269
160 1 13.8604 12.8988 8.20998
162 1 18.7236 12.5515 8.53707
163 1 20.5794 10.1178 5.8607
165 1 25.194 10.4507 6.07413
167 1 29.933 10.5427 6.64036
172 1 9.83345 17.1221 7.43916
177 1 21.4033 14.702 5.26201
179 1 25.907 14.8725 6.5331
181 1 30.2703 15.1928 7.06939
170 1 5.40288 16.1797 6.74177
174 1 14.1617 17.3036 7.7371
176 1 18.8246 16.7249 8.28888
193 1 26.3179 19.2437 5.72391
195 1 29.9481 19.5294 7.27014
184 1 4.69631 21.2062 6.31565
186 1 9.81989 21.6754 7.48727
188 1 14.4792 21.1728 7.6442
190 1 19.2632 21.0406 8.50565
207 1 25.9977 23.623 6.38292
209 1 30.1112 23.9776 6.53016
350 1 31.0353 25.9737 22.6497
336 1 31.2402 21.9395 22.5077
198 1 4.87759 25.8633 6.82524
200 1 9.32551 25.7679 7.44779
202 1 14.219 26.0642 7.35766
204 1 18.835 26.6887 8.76153
7031 1 34.046 27.6225 6.95309
1483 1 30.2775 28.119 0.377449
223 1 29.128 5.9563 13.3488
147 1 16.2354 5.65306 5.36011
1619 1 20.7153 28.0992 12.7456
150 1 22.7167 8.44993 9.40101
152 1 27.2103 8.36301 9.8458
154 1 31.7551 8.08325 9.93539
225 1 2.1186 10.0067 9.44536
227 1 6.59364 10.3614 10.0985
229 1 11.3005 10.2135 10.9642
231 1 15.867 10.782 11.7147
233 1 20.117 10.3191 12.4008
164 1 23.1046 12.333 9.58417
166 1 27.3065 12.6976 9.7659
168 1 31.354 12.5705 10.5185
239 1 2.76775 14.3221 9.29258
241 1 6.99657 14.564 10.2684
243 1 11.1484 15.1221 11.6067
245 1 16.1716 15.0962 11.5047
247 1 20.9066 14.9961 12.0098
178 1 23.3703 16.8828 8.71975
182 1 32.278 17.0586 10.9678
253 1 2.39255 18.9276 9.30662
255 1 7.1356 19.3931 9.84282
257 1 11.7265 19.6336 11.0538
259 1 16.2425 19.4024 11.4391
261 1 20.7938 18.9569 11.8815
263 1 25.4335 19.296 12.3201
180 1 28.0166 17.4115 10.0891
267 1 2.58412 23.3322 9.34967
269 1 7.09312 23.5208 9.90692
271 1 11.7496 23.9476 10.26
273 1 16.2723 24.144 10.782
275 1 20.7025 23.8641 12.0336
192 1 23.6728 21.311 8.64099
277 1 25.0602 23.9513 12.7623
194 1 28.1465 22.0294 9.67353
196 1 32.5627 21.214 10.7974
308 1 30.678 12.2654 23.0626
60 1 10.7875 26.0367 -4.25483
206 1 22.9596 25.6817 9.41672
208 1 27.7596 26.2825 9.94775
210 1 32.1652 26.3391 10.4362
212 1 4.6111 7.71521 12.8956
214 1 8.46829 8.5121 13.1603
216 1 13.3163 8.12541 13.7943
218 1 18.2435 7.97614 14.8762
220 1 22.108 7.43078 15.2926
222 1 26.7759 8.51141 16.1255
226 1 3.7649 12.4695 12.6233
297 1 6.36571 10.7889 16.6154
228 1 8.78969 12.4804 14.1436
230 1 13.3952 12.8491 14.1952
232 1 18.16 12.5814 14.9653
234 1 22.5178 12.5408 15.8874
235 1 24.5766 10.4344 13.1641
237 1 28.8344 10.7119 13.4628
236 1 27.0315 13.1634 16.225
5809 1 34.0043 10.5162 13.3606
240 1 4.15722 17.245 12.7009
242 1 8.81318 17.0606 13.4909
249 1 24.6381 15.1107 12.8472
251 1 29.2546 15.119 13.8227
5822 1 33.9715 15.0825 13.7913
323 1 2.18975 19.237 16.0305
244 1 13.3644 16.8944 14.4363
246 1 17.9562 16.8059 15.0415
248 1 22.2664 17.1711 15.9257
265 1 29.6769 19.8351 13.4834
145 1 11.7644 5.85823 4.79025
254 1 4.59311 21.7027 12.8507
256 1 9.14178 21.56 13.5485
258 1 14.3433 21.4583 14.0455
260 1 18.4463 21.7474 14.5512
262 1 22.6926 21.2842 15.4914
279 1 30.0181 24.0524 13.655
264 1 26.5574 21.7637 16.3065
151 1 25.3968 6.12486 6.31146
268 1 4.76245 26.1051 12.9924
270 1 9.29671 25.8309 13.5479
272 1 13.8301 26.0606 13.9238
274 1 18.3472 26.3798 15.1073
276 1 22.9906 25.7101 15.5311
278 1 27.5576 26.4564 15.9911
282 1 4.14008 8.1118 18.317
1543 1 7.77234 28.2532 3.55448
409 1 5.8008 24.1608 22.3677
284 1 8.25622 7.79929 20.0272
224 1 31.599 8.43422 16.5469
295 1 1.77588 10.6717 15.4842
296 1 4.04656 12.0753 19.3056
299 1 10.6969 10.3119 16.924
301 1 14.9267 10.2156 17.5842
303 1 19.9094 10.7448 18.0182
305 1 24.4524 10.7077 19.5086
307 1 28.5406 10.8022 19.1113
238 1 31.7827 12.907 16.8614
309 1 1.94941 14.5324 15.9759
311 1 6.12752 14.6192 16.1802
313 1 10.6133 14.8601 17.0528
315 1 15.4103 14.7628 17.9417
317 1 20.1194 14.8778 18.0965
319 1 24.2464 15.4812 19.0313
250 1 26.6971 17.5993 16.4295
321 1 28.7756 15.1112 19.9356
252 1 31.4859 16.8364 16.9403
310 1 3.80665 16.706 19.652
325 1 6.05933 19.3601 16.4893
327 1 10.4873 18.6672 17.5933
329 1 15.0443 19.436 17.9413
331 1 20.119 19.3229 18.2342
333 1 24.8333 19.4082 19.0206
335 1 29.3069 19.5761 19.8132
337 1 2.5107 23.6522 15.8484
339 1 6.45485 23.7962 16.3648
341 1 11.307 23.4301 16.7938
343 1 15.8659 24.4645 17.131
345 1 20.0348 24.2633 18.2975
347 1 24.1109 23.8638 19.2326
349 1 28.3234 24.2468 19.375
266 1 31.6656 21.3845 17.1883
338 1 3.98653 26.2672 19.3787
346 1 21.6922 26.3635 22.1677
280 1 32.0377 26.5008 16.1194
348 1 26.3363 26.6035 22.3491
1473 1 8.03965 28.1212 -1.93078
286 1 13.0101 7.86937 20.2806
288 1 17.6024 8.09553 20.9275
290 1 22.2161 7.8433 21.805
292 1 26.7936 8.24185 22.646
344 1 17.1526 26.5934 21.0725
365 1 1.51856 10.2047 21.5523
1545 1 12.1625 28.3451 4.62759
342 1 13.2376 25.9864 20.1029
298 1 8.09732 13.4278 20.117
300 1 12.0524 12.4855 19.925
302 1 17.1789 12.4397 21.1084
304 1 21.313 13.1388 21.7247
306 1 26.0078 12.8479 22.4151
1611 1 2.63506 28.5449 9.55732
5874 1 34.0247 10.0952 20.1697
379 1 1.25396 14.7683 22.0867
353 1 6.19318 5.64962 22.2213
312 1 8.16516 17.7865 20.4788
314 1 12.7572 17.0909 20.8893
316 1 17.3467 17.134 20.9426
318 1 22.099 17.6474 22.0813
320 1 26.7515 17.3677 22.7649
5887 1 33.8067 15.1579 20.2371
393 1 1.64344 19.4212 22.4159
326 1 8.67686 21.5663 19.847
330 1 17.3832 21.8579 20.958
73 1 7.98531 6.04873 -2.63616
5900 1 33.6267 19.3801 20.378
324 1 4.11369 21.3246 18.8891
407 1 1.30062 23.9392 21.7939
340 1 8.75309 26.2818 19.4143
328 1 12.7049 21.446 20.6008
332 1 21.3315 22.0666 22.0159
334 1 26.6105 21.8984 22.6632
7161 1 33.5043 28.2389 20.1056
291 1 24.4132 6.08576 19.2323
1681 1 2.65155 28.3557 15.6463
1683 1 7.27928 28.2817 16.2694
1479 1 21.8563 27.8588 -0.549289
1475 1 13.521 28.0266 -1.92155
1551 1 25.481 27.9489 6.00939
1541 1 3.11649 28.1618 3.81584
1613 1 7.25745 28.1535 10.1432
75 1 12.2401 6.12062 -1.51467
83 1 30.385 5.7742 1.07929
285 1 10.8928 5.7804 17.09
215 1 11.458 6.1905 10.0438
213 1 6.82616 5.85494 9.71937
369 1 10.3652 10.6686 22.8518
395 1 5.40861 19.5715 23.0624
352 1 3.11655 7.95137 24.9973
354 1 8.26235 7.98553 25.9719
294 1 30.6485 7.6831 22.9633
356 1 12.044 8.17962 26.472
698 1 26.3024 26.5546 49.5161
366 1 3.63357 12.9796 25.7372
368 1 7.7544 12.5575 26.3057
371 1 14.5066 11.0002 23.755
373 1 19.152 10.3782 23.9931
375 1 23.9637 10.6196 24.8323
377 1 28.1708 10.3722 26.0081
5939 1 32.5389 10.3853 26.044
382 1 7.94032 17.3131 26.1915
501 1 22.7713 6.63165 37.3608
385 1 15.0048 14.7944 24.4098
387 1 19.1603 15.1037 24.2712
389 1 24.0073 15.4655 25.2709
391 1 28.0704 14.9931 25.7786
5952 1 32.4992 14.2602 25.8898
380 1 3.33935 17.4259 25.5566
433 1 27.5284 5.9509 32.2131
662 1 5.45224 17.2885 50.9308
399 1 14.9127 19.5096 24.1307
401 1 19.5001 19.5431 24.4654
403 1 24.0452 20.2916 25.322
405 1 29.1286 18.9819 25.4127
5965 1 33.1311 19.5428 25.9115
394 1 3.59604 22.1033 25.5121
396 1 7.59655 21.8204 25.961
411 1 10.399 24.3109 23.178
413 1 14.9624 24.1449 24.1259
415 1 19.2676 24.1596 24.9177
417 1 23.8654 24.1071 25.3825
419 1 28.6847 23.6838 25.3148
5978 1 33.5486 23.2777 26.2873
408 1 3.54605 26.0356 26.1062
410 1 8.14788 26.2753 25.8688
519 1 0.490011 14.6837 35.0102
322 1 31.5733 16.8246 23.2334
688 1 1.04684 26.4234 50.3733
533 1 0.662477 19.1907 34.6833
686 1 33.2382 22.2012 49.1625
358 1 16.4912 8.52801 27.3468
360 1 21.1236 8.18569 27.6517
362 1 25.8283 8.34431 28.6414
364 1 30.3558 8.33113 29.2308
435 1 0.650814 10.3309 28.1713
437 1 5.39403 10.2315 29.1901
439 1 9.77926 10.4125 29.6937
370 1 12.3704 12.4612 26.6399
372 1 16.3595 13.0975 27.4351
374 1 21.4173 12.9586 27.6493
376 1 25.7805 12.3522 28.3787
378 1 30.2902 13.0332 29.2066
449 1 0.881401 14.9159 28.5458
451 1 5.669 14.8503 28.9758
453 1 10.4486 14.9938 29.4788
384 1 11.9265 17.2017 26.5208
388 1 21.2799 17.0882 27.7005
463 1 0.952727 19.4362 28.399
465 1 5.56601 19.1148 29.0838
467 1 10.213 19.7073 29.9424
386 1 16.515 17.7321 27.5121
390 1 25.8656 17.1449 28.3129
392 1 30.5446 17.3671 28.9636
477 1 0.702203 23.7019 28.5326
479 1 5.44791 23.8493 28.7711
481 1 9.74915 23.7898 29.7703
398 1 12.2157 21.7617 26.5388
400 1 16.6431 22.4195 27.0294
402 1 21.1443 21.6757 28.3438
404 1 26.5064 21.6658 28.5593
406 1 30.4089 21.1322 29.2523
684 1 26.4836 22.1984 49.3746
412 1 12.2515 26.477 26.6081
414 1 16.8248 26.5328 27.0659
416 1 21.8091 25.7955 28.59
418 1 26.3174 26.1767 28.4066
420 1 30.6426 25.6263 29.2323
503 1 27.4856 6.22642 37.7611
422 1 2.22358 7.81193 31.9151
424 1 6.89737 7.93155 32.2311
426 1 11.2519 7.69778 32.915
5991 1 32.2208 5.80786 32.7717
436 1 3.07149 12.3409 31.7685
438 1 7.81025 12.5867 32.5165
440 1 12.0273 12.4021 33.3063
441 1 14.4521 10.285 30.9694
443 1 18.4774 10.6778 30.5928
442 1 16.4827 12.8599 33.2128
445 1 23.1837 10.4989 30.7934
447 1 27.8008 9.89366 32.1368
6004 1 32.0411 10.4652 32.1496
450 1 2.30358 16.9559 31.6776
455 1 14.5081 15.2216 29.8419
456 1 16.8289 17.305 33.1277
457 1 19.1658 15.3734 30.6051
459 1 24.0131 14.9832 31.0064
461 1 28.5362 15.0658 31.3581
6017 1 32.1757 14.7749 32.4618
452 1 7.75631 16.9345 32.4887
469 1 14.251 19.8909 30.3074
454 1 12.1223 17.2574 33.3895
471 1 19.0528 19.5527 31.2457
473 1 23.6489 19.6497 31.447
475 1 27.8936 19.6232 31.6886
6030 1 32.4896 19.7322 32.5729
464 1 2.55028 21.345 32.0972
466 1 7.1904 21.409 32.8257
468 1 11.8458 21.7731 32.6348
483 1 14.4073 24.5128 30.3074
485 1 18.4859 24.1378 30.6804
487 1 23.204 24.2916 31.7331
489 1 28.1449 24.3773 32.1004
6043 1 32.5728 23.5793 32.6041
478 1 2.9158 25.7884 32.1311
480 1 7.15646 25.8709 32.2475
482 1 11.9013 26.3942 33.0052
427 1 14.3643 6.40777 29.7477
397 1 10.2151 18.8157 23.5033
682 1 20.5275 21.839 50.8851
1969 1 17.6893 28.1388 43.7984
428 1 16.0009 8.11428 33.6746
430 1 20.3334 8.75973 34.2498
432 1 25.6387 8.16528 35.013
434 1 30.2714 7.99475 35.6165
507 1 4.79763 9.91843 34.9407
509 1 8.76901 10.0072 36.1904
511 1 13.86 10.5072 36.2989
513 1 18.1552 10.4665 36.9795
444 1 21.1314 12.7483 33.6597
446 1 25.3591 12.836 34.0048
448 1 29.7639 12.8569 35.3385
700 1 32.9182 26.6558 48.2226
521 1 5.16175 14.4266 35.2465
523 1 9.38518 14.6934 36.2214
525 1 13.9333 14.8873 36.5934
527 1 18.5537 14.6308 36.7755
458 1 21.3441 17.2992 34.2027
460 1 25.7546 17.0817 34.7967
462 1 29.6399 17.3238 35.4398
535 1 4.51326 18.669 35.4538
537 1 9.23682 19.5945 35.9776
539 1 13.8771 19.4302 36.2234
541 1 18.1422 19.271 37.0809
6095 1 33.3467 18.9307 37.0556
549 1 4.45125 23.1748 34.9835
551 1 8.95562 23.9598 35.7335
553 1 13.9763 23.5416 36.2081
470 1 16.2468 21.9869 33.6609
472 1 20.8597 22.0092 34.3
474 1 25.548 22.0081 34.8726
476 1 29.8753 21.5079 35.529
361 1 23.8153 6.24799 25.8332
359 1 19.3526 6.02696 24.7755
429 1 18.3154 6.71234 30.7543
484 1 15.7915 26.6839 33.5905
660 1 0.945628 16.9311 50.1845
486 1 20.0353 26.762 34.0013
488 1 25.5327 26.4719 34.1509
490 1 30.0724 26.2421 35.6884
492 1 2.12987 7.36751 37.8135
494 1 6.77118 7.76524 38.7314
496 1 11.3552 8.2493 38.9213
498 1 15.78 8.12678 39.8707
499 1 18.219 6.36034 37.4842
635 1 8.24855 5.78011 48.1227
500 1 20.5004 8.06497 40.3622
573 1 28.4601 6.24683 42.385
504 1 30.8224 8.20884 40.006
6056 1 33.3619 5.71437 37.199
506 1 2.37097 11.9276 38.1487
508 1 6.54286 13.1381 38.7745
512 1 15.9995 12.8226 40.2895
515 1 22.857 10.8421 37.5387
514 1 20.6807 13.2389 41.3258
517 1 27.2551 10.7965 37.5063
518 1 31.0488 12.8696 39.6421
6069 1 33.3292 10.278 37.1036
510 1 11.6431 12.6523 39.0755
526 1 15.9127 17.2646 39.7511
528 1 20.5686 17.053 40.1382
529 1 22.9177 14.7507 37.5883
531 1 27.1917 14.8916 38.0365
6082 1 33.4469 15.0901 37.0178
520 1 2.13248 17.0531 38.4206
522 1 6.62295 17.1569 38.7568
524 1 11.4248 16.9389 39.0049
543 1 22.6598 19.3046 37.702
545 1 27.2872 19.5248 38.5181
532 1 30.8221 17.4346 39.7597
534 1 1.71018 20.9819 38.3244
536 1 6.24331 21.3588 38.8258
538 1 10.7463 21.601 38.765
555 1 18.1394 23.9083 36.9376
540 1 15.7991 21.1093 40.0593
557 1 22.3608 24.0842 37.8546
559 1 27.1947 24.2954 37.7932
6108 1 33.6051 23.6355 37.5035
546 1 30.8621 22.1866 40.058
548 1 2.48305 26.8477 37.4909
550 1 6.76386 26.0106 38.5523
552 1 11.448 26.2004 38.9472
554 1 15.0272 25.7083 40.3589
1755 1 10.5666 28.1636 23.3804
560 1 30.9119 26.6938 39.5453
383 1 10.4668 14.3022 23.7008
565 1 9.01483 5.71129 42.2226
697 1 22.6556 24.3245 48.1951
431 1 22.7692 5.87512 32.0552
502 1 24.8337 8.33733 40.7436
577 1 4.27083 9.82231 40.809
579 1 8.58764 10.4772 42.0687
581 1 13.205 10.2179 42.7032
583 1 17.9744 10.4365 43.8343
585 1 22.8316 10.439 43.596
516 1 25.1374 12.4249 41.193
587 1 29.2219 10.0961 42.9841
591 1 4.45012 14.9119 41.4219
593 1 9.01915 14.9196 41.4942
595 1 13.2511 15.0676 42.3378
597 1 18.0717 15.4349 43.6265
530 1 25.2191 17.6597 41.0823
601 1 28.4832 14.7188 42.4527
605 1 3.94437 19.5368 41.7186
607 1 8.70719 19.3606 42.2974
609 1 12.95 19.7471 42.5756
611 1 17.0806 19.5212 44.1393
613 1 21.8714 19.7077 43.6212
615 1 28.4016 19.4351 43.1393
604 1 1.60424 22.1056 44.2855
619 1 4.22563 23.622 41.8751
621 1 8.67438 24.1439 41.7406
623 1 12.3816 23.4978 42.792
625 1 16.8129 23.822 43.4857
542 1 19.799 21.5224 40.671
544 1 25.055 21.8596 41.0711
629 1 28.3189 23.9301 42.4831
618 1 1.67553 26.0402 44.6491
695 1 17.1317 24.6581 49.6959
693 1 12.4975 24.193 48.9786
556 1 19.7791 26.0667 40.552
558 1 24.3587 25.8357 41.0293
562 1 2.13211 7.52689 44.16
637 1 12.2186 6.29019 48.7941
564 1 5.80656 7.88647 44.8213
566 1 10.4802 7.45529 45.2298
568 1 15.1751 8.28543 45.709
570 1 19.7449 8.18673 46.3007
572 1 26.2587 7.77434 45.1956
1901 1 23.0833 28.3856 37.1202
574 1 31.8625 7.86519 44.3204
576 1 1.672 12.2471 43.7762
578 1 6.02504 12.3808 44.2865
580 1 10.519 12.974 45.4777
582 1 15.0059 12.8948 46.2146
584 1 19.7515 12.6795 46.7066
586 1 25.8732 12.134 45.453
657 1 29.3084 10.8668 47.0163
588 1 32.0878 12.7359 43.8775
594 1 11.01 17.5545 45.371
596 1 15.3481 16.716 45.9857
599 1 22.8002 15.1436 44.0354
671 1 29.8318 14.8954 47.22
590 1 1.56021 17.4662 43.9058
592 1 6.41383 16.9208 44.9882
598 1 20.306 17.2944 46.6131
600 1 26.1331 17.2449 45.6228
685 1 29.4094 19.123 47.6331
602 1 32.2975 17.1042 44.3897
689 1 3.57744 24.1713 48.4027
606 1 6.1783 21.7493 45.2462
608 1 9.96354 22.0978 45.5802
610 1 14.164 21.0548 46.0798
627 1 22.2706 24.2668 43.9158
612 1 18.9437 22.0895 46.2443
614 1 25.8705 21.5654 45.5051
699 1 29.2211 23.9199 47.2126
616 1 32.1556 21.5609 44.3398
1963 1 4.14495 28.3986 41.6925
620 1 6.1802 26.3528 45.2483
622 1 10.5376 26.5923 45.4292
624 1 15.0011 27.0098 46.2541
626 1 20.0086 26.6647 46.6081
628 1 25.8761 26.3368 45.5119
630 1 31.6542 26.4318 44.1659
632 1 1.20169 8.29518 50.1928
640 1 20.9478 8.01027 50.5364
7291 1 32.8 28.411 32.6281
642 1 27.0543 7.97439 49.7232
644 1 32.5635 7.4845 48.7286
647 1 3.96475 10.1565 47.4227
646 1 0.753084 12.8918 49.8184
649 1 7.93883 10.3383 48.2429
648 1 5.53144 12.4299 50.9993
651 1 12.5138 10.3659 49.0548
653 1 17.1671 10.3259 49.4287
655 1 23.5537 10.1802 48.3186
656 1 27.0172 12.6655 49.9075
658 1 32.8397 12.8747 49.3671
661 1 3.82208 15.0196 47.0901
663 1 8.03838 14.8865 47.8013
665 1 12.2018 14.9828 49.0933
667 1 17.7993 14.8335 49.5952
669 1 23.6707 14.3152 48.3229
675 1 3.82549 19.5876 47.5287
1763 1 28.7451 28.4826 25.8411
677 1 7.91345 18.9974 48.5808
679 1 12.6505 18.783 49.0746
681 1 17.1527 19.5344 49.1815
683 1 22.8773 20.6966 48.045
670 1 27.3043 16.6565 50.0721
672 1 32.9057 17.5309 48.9629
367 1 6.17384 10.2371 23.2299
569 1 18.2846 6.15996 43.3839
691 1 7.7772 23.8477 48.3041
1831 1 23.5081 28.2323 31.0863
497 1 13.6432 5.90659 36.6036
1833 1 28.2092 28.4781 32.0153
5926 1 32.5221 6.29093 26.6775
1825 1 9.79392 27.6799 29.8836
1897 1 14.038 28.2807 36.7429
425 1 9.69166 5.91409 29.9058
7226 1 33.3646 27.8809 26.4113
1823 1 5.05483 28.3251 28.8687
1899 1 18.3283 27.9545 37.3427
1895 1 9.61496 28.1125 35.7007
2037 1 12.6779 28.375 48.9515
1891 1 0.674936 28.1832 34.2203
1903 1 27.6166 28.203 38.0601
2035 1 8.06296 28.2424 48.0775
668 1 20.8916 17.1429 50.6739
634 1 5.75465 7.57481 50.8215
381 1 5.37729 15.3541 23.269
696 1 20.5405 26.3761 51.3775
636 1 9.62349 8.32578 51.8177
638 1 14.5143 8.62565 52.0622
758 1 0.418755 26.2837 56.5705
712 1 28.0946 7.80439 54.3351
2389 1 22.6776 28.2905 72.0175
714 1 33.8578 8.11912 53.4522
717 1 2.95358 9.75817 53.9195
719 1 7.57074 10.0698 54.5222
923 1 33.4151 5.86138 64.8627
652 1 14.7379 12.7145 52.5891
723 1 18.1761 10.199 53.94
1100 1 20.8415 21.9426 79.1318
725 1 24.3718 10.4032 52.9817
1118 1 30.9324 25.7169 78.6988
727 1 30.9222 10.1099 51.3279
731 1 2.93266 14.4946 53.6424
733 1 7.63364 15.1925 54.2051
666 1 14.7312 17.3507 52.4426
737 1 18.3603 15.0572 54.2997
739 1 24.538 15.1177 53.2103
1072 1 21.2876 12.1253 79.0987
745 1 2.86472 19.3318 53.9368
747 1 7.55716 19.5316 54.4692
921 1 27.2018 5.76973 66.1718
664 1 9.89687 17.1486 51.4391
751 1 18.6219 19.0417 54.3848
2177 1 13.0593 28.2908 59.9468
753 1 24.4729 19.7619 52.2917
755 1 30.256 19.753 51.955
707 1 12.1016 5.80496 54.9708
759 1 2.75171 23.8567 53.6366
678 1 9.91925 21.9553 51.4417
680 1 14.6374 21.6195 52.3294
765 1 18.1244 23.6129 54.1979
711 1 24.5048 5.7732 52.5528
767 1 24.2759 24.2046 52.5986
769 1 29.9898 24.8552 51.277
741 1 30.9706 14.8251 52.2086
692 1 9.58302 25.8482 51.7048
694 1 14.7934 25.4208 52.8353
1091 1 34.0462 14.7526 75.5557
926 1 0.868756 12.4833 73.5794
1058 1 20.45 7.42498 79.3153
1007 1 34.017 9.39559 69.4249
704 1 5.05952 7.70928 56.9325
706 1 9.26612 8.15637 57.8821
708 1 15.9782 7.96407 56.4107
710 1 22.0882 7.90839 54.8837
913 1 3.08535 5.83874 70.6706
851 1 25.7919 5.82383 61.86
770 1 33.6741 26.3465 53.3483
718 1 4.89382 12.3574 57.337
720 1 9.63482 12.8407 57.4329
721 1 12.1951 10.3642 55.4047
722 1 15.7554 12.4241 57.0829
793 1 19.7014 10.3655 58.4465
724 1 21.7779 12.4551 55.9852
795 1 25.3506 10.0752 57.4939
726 1 28.0842 12.5996 54.2115
797 1 31.3469 9.71905 56.1328
732 1 4.7153 16.9695 56.9826
734 1 9.85365 17.4557 57.8869
735 1 12.402 14.8386 54.8552
738 1 21.9086 17.1922 55.2832
809 1 25.5446 15.0211 57.3809
811 1 31.3961 15.2174 56.0937
2245 1 7.83309 28.2787 65.3289
749 1 12.2889 19.3822 54.6993
736 1 15.8134 17.205 56.8427
823 1 25.2987 19.4989 57.0708
740 1 27.5358 16.9496 54.7483
825 1 30.7505 19.7656 56.674
1057 1 16.461 5.68817 77.5288
761 1 7.33247 24.2043 54.4535
746 1 4.72292 21.3628 57.0969
763 1 12.0324 23.7878 55.3144
750 1 15.7801 21.8305 56.8722
752 1 21.9178 22.1014 55.1787
837 1 24.7583 23.3754 57.2258
754 1 27.6369 22.0041 53.8143
839 1 30.4064 24.4772 56.1107
760 1 4.72808 25.4877 57.3566
912 1 0.693379 8.1652 73.8723
764 1 15.8438 26.508 57.0793
766 1 21.6531 26.6054 55.6979
968 1 0.188618 26.3768 73.9208
768 1 27.9378 26.7831 53.8493
1114 1 21.1593 26.6399 78.9685
1021 1 34.1059 15.3639 69.0906
778 1 16.8347 8.04727 60.4692
780 1 22.2076 7.8509 60.3766
1028 1 13.9818 21.7693 76.1858
782 1 29.0578 7.57091 58.8311
1115 1 23.5987 23.9481 76.2626
787 1 2.34663 9.69156 60.0194
789 1 6.8992 10.2615 60.3564
791 1 13.2444 10.392 59.2112
792 1 16.7088 12.4761 61.3352
794 1 22.5865 12.4277 60.5479
796 1 28.9115 11.9271 58.3284
867 1 32.6682 10.1875 60.424
801 1 2.89133 14.7434 59.8168
803 1 7.60561 14.7044 60.51
805 1 12.9929 14.8433 59.9797
807 1 19.3593 14.8864 58.5032
808 1 23.0602 17.2931 60.043
879 1 25.8203 14.8457 61.2392
881 1 32.3077 14.4417 60.5826
815 1 2.35903 19.198 60.4672
817 1 7.04376 19.0444 60.4444
819 1 13.3393 18.8877 59.3183
821 1 20.1023 19.3466 58.113
810 1 28.5302 16.6541 59.1545
895 1 32.1775 19.1449 60.6442
829 1 2.4043 23.515 59.8851
831 1 7.12511 23.6545 60.7576
748 1 9.37619 21.7152 57.2797
833 1 12.5901 23.6536 59.0912
820 1 16.9853 21.6236 60.9542
835 1 19.8615 24.2642 58.3144
822 1 22.7992 22.0847 60.1111
824 1 28.8492 22.0613 58.9754
909 1 32.6247 23.6296 60.0638
762 1 9.21608 26.4344 57.8602
836 1 23.1553 26.6578 60.054
838 1 28.7375 26.3747 59.1961
774 1 4.17538 7.84871 63.3889
1113 1 17.8325 24.0801 77.0108
776 1 10.4341 7.68493 62.331
849 1 20.2711 5.76158 62.8498
850 1 23.4643 8.06704 64.6027
852 1 29.5687 7.92049 63.0069
1033 1 33.893 18.9474 65.0938
788 1 4.6974 12.3391 63.2751
790 1 10.9215 12.1713 61.9218
859 1 8.32543 9.71399 64.7536
861 1 14.3847 9.71372 64.1304
863 1 20.4116 10.5961 63.179
865 1 26.0787 10.2141 61.257
864 1 24.2912 12.581 64.9309
866 1 29.7668 12.7179 62.9442
937 1 33.0661 10.0826 65.1062
875 1 14.4522 14.584 63.861
877 1 20.3559 14.5012 63.0797
951 1 33.6597 14.2749 64.5479
802 1 4.52094 16.5887 63.7334
804 1 10.5228 16.6461 62.2996
889 1 14.0555 19.2507 63.8086
806 1 16.9125 17.1737 60.874
891 1 20.1494 19.0286 62.8906
878 1 23.9936 16.8025 64.436
893 1 25.7267 19.5431 61.6008
880 1 29.7873 17.6368 63.4342
816 1 4.28174 21.2716 63.4571
818 1 10.7276 21.2191 62.5402
903 1 13.8788 23.9247 63.3993
905 1 19.8859 23.7388 62.5638
907 1 26.663 24.2754 61.9055
892 1 23.455 21.3502 64.4734
894 1 29.773 21.8916 63.0045
964 1 33.5832 23.6813 65.3442
830 1 4.16692 25.8835 63.6917
832 1 10.0315 26.1625 62.2852
834 1 16.4454 26.4432 60.9011
908 1 29.314 26.4059 63.7147
1119 1 33.9528 23.6048 75.7726
844 1 5.6783 8.2004 67.8742
690 1 5.0563 26.6934 51.0329
846 1 12.3066 7.77927 66.642
848 1 17.7958 7.92874 66.0138
676 1 6.02508 21.7518 51.7987
650 1 9.63624 13.1638 51.5589
922 1 30.948 7.8272 67.8878
857 1 2.15663 10.2794 66.5247
858 1 5.77797 12.2577 67.672
860 1 12.0992 12.0049 66.4497
931 1 15.0027 10.0184 68.7946
862 1 17.7111 12.421 65.9779
933 1 21.1395 10.1219 67.6215
935 1 27.631 10.0804 66.1438
936 1 30.6516 12.5514 67.3925
871 1 1.91661 14.8879 66.3386
873 1 8.33437 14.3851 65.6369
874 1 11.3955 16.7457 66.6903
945 1 14.8624 14.524 68.8702
947 1 21.2266 14.7923 67.6589
949 1 27.6218 15.3241 65.7274
885 1 2.22455 19.4095 66.4276
872 1 6.0133 16.9078 67.9069
887 1 8.04005 18.8274 64.2949
876 1 17.6575 17.0331 66.2374
961 1 20.9945 19.2685 66.8613
963 1 27.295 19.4146 66.0827
950 1 31.0078 17.1525 67.8084
1111 1 11.7758 24.3348 79.3334
899 1 2.1074 24.0459 66.2664
886 1 5.54506 21.4023 67.8496
901 1 7.70886 23.3941 65.2336
888 1 11.398 21.1356 66.4852
973 1 15.1068 23.7722 68.069
890 1 17.3552 21.6967 65.4132
975 1 21.1382 24.3968 67.0545
977 1 26.9604 23.6571 66.3342
1035 1 31.0325 21.8383 67.4228
900 1 6.02586 26.0738 67.6244
902 1 11.4121 25.9725 66.8365
904 1 17.593 25.7138 65.6714
728 1 33.8169 12.7442 53.9816
906 1 23.356 26.4992 64.6264
978 1 30.0428 26.2622 68.1871
1040 1 7.98897 26.2047 77.1103
916 1 12.7494 7.60599 71.9141
918 1 18.3251 7.99769 70.2328
2249 1 20.1793 27.9805 62.4714
920 1 24.7543 7.84626 69.1311
927 1 3.16916 10.5613 70.6561
928 1 6.8954 12.7873 72.1628
929 1 9.35073 9.83292 69.428
930 1 11.4539 12.088 71.239
932 1 18.1322 12.4454 70.4074
1003 1 22.123 10.1998 72.0889
934 1 24.9395 12.351 68.9623
1005 1 28.1053 10.5664 70.7155
1086 1 21.2652 17.3898 79.009
1006 1 31.7135 12.5935 71.9849
941 1 2.98382 14.881 70.703
943 1 9.31563 14.7283 69.41
944 1 12.3496 17.3663 71.2848
1017 1 22.2868 14.9298 72.7268
948 1 24.9951 17.0473 69.0348
1019 1 28.1253 14.5105 70.7231
955 1 2.45623 19.3053 70.8203
942 1 6.69187 17.5867 71.8212
957 1 9.4657 19.6161 69.7078
959 1 15.0039 19.0715 68.5429
946 1 18.7395 16.9968 70.0971
1031 1 22.563 19.0284 71.7695
1020 1 28.9805 19.2361 70.6183
969 1 3.25692 24.0537 70.8968
956 1 7.15038 21.4914 73.1502
971 1 9.02894 24.2002 69.6654
958 1 12.4728 21.6797 71.6219
960 1 18.8034 21.524 69.9946
1045 1 22.4065 23.6645 71.5849
962 1 24.3613 21.3841 69.1605
1047 1 28.514 23.268 70.8519
1116 1 26.9615 25.7886 78.3419
972 1 12.6919 26.4115 71.0215
974 1 18.8399 26.458 69.5905
976 1 25.2586 26.0408 68.7076
1038 1 1.18849 25.9825 78.3828
914 1 6.80275 8.44419 72.4118
756 1 33.1546 22.4578 53.7958
843 1 1.98003 5.86428 66.1539
988 1 19.684 7.6112 75.1987
990 1 25.8324 7.75933 73.4557
2313 1 3.23164 28.0272 71.0755
992 1 32.2123 7.82436 72.5108
1042 1 13.7711 26.0516 75.3565
997 1 4.29818 10.2679 75.1799
999 1 9.74531 10.2304 74.1995
1001 1 15.8916 9.45554 73.0849
1002 1 19.5132 12.3604 74.5755
1004 1 26.0019 12.6011 73.3791
1073 1 23.124 10.0543 76.4033
1075 1 29.7044 9.88528 75.213
1077 1 33.6934 10.0777 75.2739
940 1 0.931821 17.2412 74.0203
1011 1 4.61716 14.8188 75.034
1013 1 9.96442 14.9018 74.5127
1015 1 16.1948 15.3349 73.0852
1089 1 29.9983 14.7071 75.0569
2317 1 14.9113 28.2454 68.6908
1025 1 4.02522 19.4278 75.3544
1027 1 10.0425 19.5421 74.7206
1029 1 16.1721 19.1334 73.2537
1016 1 19.3539 17.0475 74.3395
1018 1 26.2631 17.2801 73.296
1022 1 32.3834 16.9233 72.338
777 1 12.9339 5.70558 59.3726
1039 1 4.32605 24.2273 75.2286
1041 1 10.867 24.0559 74.1163
1043 1 16.3267 23.8506 72.6367
1030 1 20.1142 21.6044 74.2931
1032 1 26.3439 21.5672 73.3897
1117 1 29.6532 23.4767 75.3973
1034 1 32.0948 21.6899 72.1401
970 1 7.06353 26.3877 73.1662
2387 1 16.1328 28.383 72.9524
1044 1 20.0281 26.2145 74.3808
1046 1 25.8972 25.8802 73.8297
1048 1 32.0186 26.1424 72.4961
982 1 1.37998 8.40125 78.3732
984 1 7.47191 7.68495 76.9824
1104 1 31.4232 20.9876 79.0127
986 1 13.5138 8.40446 75.6321
2463 1 34.0771 28.1551 75.1473
709 1 18.0886 6.011 53.6063
1060 1 27.1711 8.41251 77.6236
1062 1 31.6091 7.78252 78.8305
996 1 2.05601 12.3194 77.9056
998 1 8.07935 12.2858 77.0244
1069 1 11.2137 9.98708 78.413
1000 1 13.5914 12.6359 75.3686
1071 1 17.4398 10.4459 77.2197
991 1 28.8215 5.80314 70.3522
1074 1 27.0404 12.3482 77.8572
1076 1 31.4216 12.5313 78.7085
779 1 19.1551 6.03912 58.2237
1083 1 10.9949 15.6395 78.3456
1014 1 13.9753 17.1065 76.2407
1085 1 18.2469 15.3183 77.7612
1087 1 23.1442 14.7488 76.4284
1090 1 31.6818 17.0483 78.5493
1010 1 1.8085 16.8028 77.8318
1012 1 7.68949 16.9643 77.1012
2253 1 32.2668 28.2931 60.8873
1099 1 17.9357 19.8234 77.9
1102 1 26.9546 21.0321 78.1666
1101 1 23.2968 19.2634 75.9338
1103 1 30.127 19.5014 75.375
1088 1 26.9211 17.0014 78.0094
1026 1 7.49567 21.6764 77.6968
1024 1 1.4078 21.3564 77.7732