ITEM: TIMESTEP
323000
ITEM: NUMBER OF ATOMS
16000
ITEM: BOX BOUNDS pp pp pp
3.6460289544342572e-01 1.0183539710455932e+02
5.7403419752010620e+00 9.6459658024795118e+01
-5.2102978815504386e+00 1.0741029788154736e+02
ITEM: ATOMS id type x y z
60 1 10.5966 26.3125 -5.0486
83 1 30.6366 5.68197 0.980587
5796 1 34.0954 5.70345 13.6722
6 1 14.6272 8.35539 -4.91649
8 1 19.3192 8.15195 -4.30789
10 1 23.9703 7.90085 -3.25309
12 1 28.2977 8.04478 -2.98744
14 1 33.0583 8.13547 -1.86829
85 1 3.26125 10.0371 -3.61182
87 1 7.72028 10.8436 -2.55248
20 1 15.0662 12.8344 -4.22193
22 1 19.3075 12.6005 -3.58961
24 1 24.1719 12.6263 -3.50094
26 1 28.5072 12.9234 -3.01222
28 1 32.881 12.8035 -1.74343
99 1 3.53373 14.7267 -2.80034
101 1 8.13561 15.3953 -2.30771
103 1 12.3042 14.9809 -1.43372
38 1 24.1895 17.1168 -3.42819
42 1 33.2691 16.9294 -2.28648
113 1 2.91854 19.0579 -3.09208
115 1 7.53575 19.2686 -2.48332
34 1 15.3791 16.892 -4.05144
117 1 12.7209 19.6486 -1.19558
36 1 20.0438 17.2497 -3.95349
50 1 19.4628 21.0582 -4.27211
40 1 28.6402 17.2547 -2.81625
127 1 3.0133 24.2666 -3.01578
129 1 7.57941 23.8542 -2.17465
48 1 14.7944 21.8064 -5.21698
52 1 24.5505 21.4112 -3.36874
54 1 28.5783 21.4785 -3.03169
56 1 33.3008 21.5127 -2.20258
291 1 24.2944 6.4451 19.0478
32 1 10.8409 17.2871 -4.81805
213 1 6.99297 5.96978 10.253
64 1 19.956 25.7948 -4.09953
66 1 24.4988 26.0709 -3.48876
68 1 28.9826 25.9364 -2.95137
70 1 33.3816 25.964 -1.8818
10878 1 0.96892 7.82986 -0.197083
72 1 5.65643 7.92364 0.0221447
74 1 9.71427 7.87535 0.762943
76 1 14.1185 7.94504 1.39587
10982 1 0.525897 21.1698 5.76475
10891 1 1.43318 12.5615 -0.0348229
86 1 5.16343 12.3177 0.903743
88 1 9.65402 12.5464 0.879466
89 1 12.3772 10.2466 -1.58921
90 1 14.3432 12.4096 1.70387
91 1 17.0356 10.2745 -1.25731
93 1 21.6772 10.5203 -0.90973
95 1 26.3147 10.557 -0.560796
97 1 30.4056 9.76036 0.883176
10904 1 0.79908 16.565 0.312805
102 1 10.2452 17.3614 0.677226
105 1 16.8952 15.1193 -0.795195
107 1 21.6185 15.225 -0.949375
109 1 26.2047 15.2099 0.307434
111 1 30.3331 14.8373 0.803266
100 1 4.85325 16.8526 0.558794
104 1 14.3046 17.2085 1.58379
119 1 16.9001 18.9249 -0.850183
121 1 21.6271 19.5575 -0.247222
123 1 26.1315 19.2739 0.431718
125 1 30.7169 19.4302 0.541695
10917 1 0.991838 22.0036 0.0738191
114 1 5.31662 21.6104 0.130881
116 1 9.9523 21.8963 0.489378
131 1 13.3007 24.171 -1.64318
118 1 14.6279 22.0902 1.36802
133 1 17.0692 23.5989 -1.38132
135 1 21.2555 23.5703 -0.847442
137 1 25.9409 23.4179 -0.279416
139 1 30.4047 24.0566 0.995297
285 1 10.7361 6.07988 16.3652
128 1 5.55036 26.1286 0.576896
130 1 10.3806 26.4181 0.627799
132 1 14.8103 26.4942 1.89989
289 1 19.559 6.13798 18.1176
73 1 8.22272 6.21229 -2.39728
10930 1 0.526949 26.4178 -0.476168
342 1 12.6208 25.8727 20.495
78 1 19.3418 8.18951 2.0844
80 1 23.1925 8.39461 3.0965
82 1 27.3668 8.37536 3.38575
84 1 33.3009 8.23097 3.81574
155 1 3.1885 9.8884 3.52306
157 1 7.36226 10.4059 3.75289
159 1 12.0976 10.2938 3.78395
161 1 16.7295 10.4213 4.38009
92 1 18.8307 12.7611 2.20434
94 1 23.1923 12.8339 2.80762
96 1 27.4324 12.8186 3.39509
98 1 32.2407 12.7915 3.90206
169 1 2.81689 14.342 3.81994
171 1 7.40626 15.297 3.78432
173 1 11.8972 14.7929 4.94453
175 1 16.625 15.0179 4.90059
106 1 19.0138 17.3249 2.25058
110 1 28.2511 16.9007 3.34232
183 1 2.95075 19.4297 3.18023
185 1 7.55213 19.3247 3.63388
187 1 12.1815 19.5426 4.57778
189 1 16.073 19.4613 5.18339
108 1 23.7445 16.6263 3.45241
112 1 32.8256 17.0005 4.11312
197 1 3.44327 23.9421 3.73342
199 1 7.50883 24.1619 3.31523
201 1 11.7247 23.9996 4.4398
203 1 15.8174 24.231 4.60417
120 1 19.3054 22.4827 2.38163
122 1 23.4947 22.1406 3.13704
124 1 27.6221 21.6112 3.824
126 1 31.9161 21.1825 4.19633
5848 1 34.0153 23.7011 13.7428
141 1 2.84029 5.90077 2.64733
134 1 18.9302 26.4757 2.07433
136 1 23.8021 25.7155 2.48751
138 1 28.1308 26.0017 3.45723
140 1 32.8657 25.912 4.55988
142 1 4.67012 8.00461 6.53152
144 1 9.4583 8.16634 7.20722
146 1 13.7866 8.37428 7.0563
148 1 18.4477 8.00715 8.07371
156 1 4.49579 12.5127 7.13721
158 1 9.34588 12.8121 7.39347
160 1 13.8821 12.529 7.77984
163 1 21.3496 10.7181 5.44057
165 1 25.272 10.4925 6.31219
167 1 29.8174 10.786 6.90341
5822 1 33.4067 14.9015 13.5876
170 1 4.74941 17.1955 6.5989
176 1 18.6409 17.1429 8.06443
177 1 20.9855 14.4287 5.46157
179 1 25.6297 14.8827 6.96866
181 1 30.205 14.5714 6.99013
172 1 9.32509 17.3316 7.43652
174 1 13.8803 17.1734 8.18904
191 1 20.6585 19.3202 5.40653
193 1 25.2003 18.9046 6.26288
195 1 29.7603 19.6011 7.35492
348 1 26.1176 26.0908 22.3159
336 1 30.7646 21.7383 22.7386
184 1 5.31236 21.468 6.49937
186 1 9.32798 22.0128 7.10469
188 1 13.8185 21.6018 7.70195
190 1 18.6085 21.16 8.48297
205 1 20.8614 23.8814 5.40874
207 1 25.3418 24.253 6.68352
209 1 29.934 23.8538 7.16046
369 1 10.1015 10.5275 22.9015
5809 1 33.6455 10.4919 13.9189
198 1 4.58305 26.1198 6.58602
200 1 9.20569 26.3184 6.89996
202 1 13.8569 26.2609 7.91602
204 1 18.7654 26.5747 7.78293
5861 1 33.4876 6.12862 20.2834
1553 1 30.2546 27.8683 7.14052
328 1 12.7453 22.0401 20.4896
326 1 8.23735 22.3153 20.0787
287 1 15.3956 6.51271 17.1745
150 1 22.7493 7.87243 8.7954
152 1 27.4046 7.66701 9.63442
154 1 32.1863 8.07783 10.1389
225 1 1.89508 10.38 9.34555
227 1 6.72796 10.491 10.0035
229 1 11.3273 10.8848 10.4604
231 1 15.564 10.3941 11.1076
162 1 18.3746 12.0674 8.64658
233 1 20.2563 10.0451 11.7952
164 1 23.1933 12.3854 9.24661
235 1 25.0002 10.4802 11.9379
166 1 27.821 12.7393 10.579
168 1 31.7252 12.9404 10.4387
239 1 2.06389 15.5985 9.65531
241 1 6.44047 15.0435 10.3566
243 1 11.0093 14.8684 10.5225
245 1 15.671 15.0492 10.8814
247 1 20.3285 14.7559 11.6563
180 1 27.2927 17.2549 9.48174
253 1 2.79839 19.3095 9.12972
255 1 6.60822 19.705 10.2881
257 1 10.8328 19.5864 10.5936
259 1 15.3737 18.9779 11.3375
261 1 20.3504 19.4459 11.627
178 1 22.6667 16.7664 8.77612
182 1 31.8776 17.1942 10.5877
46 1 10.6998 21.6466 -4.88983
267 1 2.42557 23.8419 9.24315
269 1 7.02617 24.3007 9.86391
254 1 3.95562 21.5687 13.1876
271 1 11.0662 24.4241 10.8411
273 1 15.6061 24.2106 11.2782
275 1 20.3153 24.126 11.5231
192 1 22.3885 21.5713 9.2564
194 1 27.1227 21.8059 10.2328
196 1 31.6413 21.9749 10.1457
344 1 17.239 26.2185 20.9258
268 1 4.18431 26.2428 12.6977
395 1 5.80931 19.7703 22.4674
340 1 8.25386 26.4141 20.1105
330 1 16.7632 21.6951 20.1671
206 1 23.391 26.4742 9.04583
208 1 27.2212 26.4483 10.3645
210 1 32.284 26.2171 10.2573
212 1 4.07637 8.42822 13.1711
214 1 8.58431 8.38515 13.5333
216 1 13.0813 8.43654 14.0375
218 1 17.7754 8.45784 14.5606
220 1 22.4631 8.18497 15.1612
226 1 4.23233 13.294 12.9888
228 1 8.52718 13.1374 13.2662
230 1 13.5349 12.409 14.0784
232 1 17.3991 12.9205 14.6935
234 1 22.1478 12.6792 15.2434
237 1 29.2971 10.1923 13.3023
143 1 7.81624 5.85963 3.78111
309 1 1.48472 15.0298 15.0692
240 1 4.5922 17.8231 12.9715
242 1 8.60671 17.3367 13.8497
244 1 13.0359 17.0298 13.9346
246 1 17.9132 17.3589 14.3784
249 1 24.9675 14.8615 12.5025
251 1 28.9456 14.8793 13.4862
7096 1 33.9964 28.4155 13.6097
323 1 1.66899 19.1871 15.6074
256 1 8.49303 22.0434 13.6233
263 1 24.7293 19.289 12.5577
265 1 29.3011 19.4793 13.2015
250 1 26.5038 17.3282 16.0415
145 1 11.5591 6.06723 4.42713
337 1 1.70128 23.8186 16.1582
339 1 6.19256 24.2796 16.3471
258 1 13.0349 21.9686 13.9304
260 1 17.2913 21.8231 14.256
262 1 21.7029 21.5201 15.2917
277 1 24.6647 24.0302 12.6692
279 1 30.1089 24.2168 12.776
381 1 6.18196 15.0338 22.6133
346 1 21.5102 26.4211 21.492
270 1 9.05152 26.7637 13.3016
272 1 13.6758 26.5419 14.0654
274 1 18.3136 26.1881 14.4708
276 1 22.243 26.1706 15.2457
5900 1 33.3038 19.3503 20.4725
278 1 26.8779 26.637 16.0103
282 1 3.61316 8.00044 19.612
351 1 1.23218 5.94193 21.855
223 1 29.5159 5.69683 13.2208
5913 1 33.0299 24.5117 19.7926
349 1 29.2478 23.9721 19.0483
222 1 26.4049 7.72792 15.9895
224 1 31.3485 8.09144 16.4868
295 1 2.11574 11.1179 16.0514
297 1 5.98261 10.1684 16.2092
299 1 10.3761 10.7128 17.0091
301 1 15.1166 10.6061 17.6845
303 1 19.6656 10.8172 18.1208
305 1 24.1964 10.4918 18.3795
236 1 26.7908 11.5577 16.1092
307 1 29.1071 10.1522 20.0452
238 1 30.8214 12.4414 17.1703
311 1 6.01261 14.7936 16.9219
313 1 10.6618 15.3282 16.3478
315 1 15.0076 14.5606 18.0771
317 1 19.5058 14.9978 18.3999
319 1 24.3126 14.5753 18.6689
321 1 28.7889 14.8774 19.3081
310 1 3.71075 17.2604 19.3151
325 1 6.03072 19.5326 16.4801
327 1 10.1867 19.7796 17.3047
329 1 14.2355 19.1519 17.1491
248 1 22.1986 17.0128 15.1622
331 1 19.5683 18.7602 17.6735
333 1 24.3035 19.9318 18.1414
252 1 30.9911 17.1156 16.9652
324 1 3.99893 21.6863 19.6678
341 1 10.9483 24.4112 17.1409
343 1 15.4542 23.7191 17.2836
345 1 19.7647 24.3783 17.9442
347 1 24.3014 23.767 18.6158
264 1 26.816 22.0055 15.4708
266 1 32.1789 21.3373 16.4638
338 1 3.59631 26.4413 19.2998
281 1 1.96092 5.89377 15.6151
283 1 5.86928 6.2002 16.8239
334 1 26.05 21.7555 22.2871
280 1 31.014 25.9965 16.1941
71 1 3.61542 5.94465 -3.48688
284 1 8.60091 8.42102 19.6769
286 1 12.9665 8.196 20.1149
288 1 16.9159 8.52273 20.7068
290 1 21.5898 8.51553 21.7483
292 1 26.2473 8.583 22.3157
215 1 11.4048 5.98845 10.2806
407 1 0.722125 24.2442 21.7283
296 1 4.47174 12.6907 19.9055
365 1 1.30368 10.3951 22.1146
367 1 6.0526 10.4346 22.5722
298 1 8.40726 13.0059 19.2262
300 1 12.7268 12.0409 20.5786
302 1 16.9544 12.8658 21.2668
304 1 21.5797 12.4781 21.7441
306 1 26.1385 12.4704 22.1564
332 1 21.3622 21.6116 20.9174
5874 1 33.0434 10.4288 19.9332
379 1 0.964819 15.0096 21.9116
151 1 25.3029 5.6369 5.94284
314 1 12.7379 17.2421 20.2469
318 1 21.6205 17.4238 21.0557
5887 1 32.8888 14.666 20.2252
393 1 1.28015 19.629 22.217
312 1 8.31464 17.7417 19.8302
316 1 17.0442 17.1665 21.4884
320 1 26.4809 17.3165 21.8831
335 1 29.0536 19.8554 19.0406
153 1 30.1812 6.10515 6.17187
81 1 25.3104 6.01116 -0.16895
1475 1 12.7447 28.0679 -2.11056
1683 1 6.35593 28.0958 16.1516
1687 1 15.5023 28.534 17.2995
1481 1 26.3934 28.0336 0.245044
1543 1 7.71234 28.2186 3.85918
1685 1 10.996 28.41 16.7575
1753 1 5.81859 28.2797 22.8519
1549 1 21.2124 28.3989 5.60974
1551 1 25.5826 28.1146 6.15221
1693 1 28.4983 27.6759 19.8133
1541 1 2.32932 28.3467 3.23817
1617 1 16.4098 28.0428 10.782
1477 1 16.8588 28.3791 -1.6033
79 1 21.4808 5.86048 -0.810827
211 1 2.25155 6.08987 9.82381
353 1 5.77648 6.13622 22.9544
322 1 31.0707 17.1281 23.0154
352 1 3.34039 8.27514 25.3741
354 1 7.83586 8.14577 26.1864
6173 1 34.1585 24.7483 41.3623
366 1 2.66395 12.2692 25.4038
368 1 8.21525 12.8186 26.0111
637 1 12.1586 6.04284 48.8378
371 1 14.5768 10.2032 24.0346
373 1 19.1805 10.4406 24.4212
375 1 23.6385 10.6523 25.6708
377 1 27.9875 10.6365 25.7307
5939 1 32.7534 10.191 26.3675
380 1 3.13727 16.8786 25.303
431 1 23.3703 6.07206 31.3635
385 1 14.7472 15.1266 23.7837
387 1 19.4019 15.2387 24.3711
389 1 24.0708 14.8971 24.927
391 1 27.9597 15.3734 25.8666
5952 1 33.3244 14.9344 26.6461
411 1 11.1271 23.7251 23.5492
382 1 7.07135 17.2193 25.9608
495 1 9.52484 5.84346 36.2397
399 1 14.5946 19.5072 23.7947
401 1 19.421 19.5769 24.4452
403 1 24.0405 19.2462 25.9101
405 1 28.6638 19.48 25.4643
6121 1 33.7241 5.95954 41.3656
394 1 3.05575 21.6811 25.3311
396 1 7.7374 21.8558 26.1585
413 1 15.4669 24.0659 23.9241
415 1 19.7395 23.7748 24.7155
417 1 23.7423 23.9328 24.8874
419 1 27.6977 23.8316 25.1467
690 1 5.35887 25.7972 50.6184
408 1 3.25076 26.3935 26.0951
410 1 7.99329 25.8544 26.3321
409 1 5.54652 24.4006 23.3104
6134 1 33.8165 10.3311 40.5257
646 1 1.56571 12.28 50.6073
383 1 10.3003 15.1225 22.9248
356 1 12.6332 8.40583 26.8071
358 1 16.7827 8.58679 27.6924
360 1 21.3898 8.22365 27.3852
362 1 25.9752 8.22758 28.0399
364 1 29.9722 8.21454 29.0841
435 1 0.667492 10.4446 28.6295
437 1 5.15573 10.6056 28.955
439 1 9.75621 10.3735 29.5116
370 1 11.969 13.2235 26.4475
441 1 14.3589 10.6179 29.9868
372 1 16.4153 13.2141 27.1975
374 1 21.1955 12.7829 27.8705
376 1 26.0166 12.8968 28.6024
378 1 30.5288 12.6882 29.2624
449 1 0.780345 14.7994 28.4825
451 1 5.58329 15.2525 29.0265
453 1 9.99898 15.1514 29.4263
386 1 16.3706 17.3161 27.1824
388 1 21.0531 17.3506 28.0468
390 1 26.6379 17.2231 29.3921
648 1 5.35376 12.3604 51.1744
465 1 4.69332 19.1059 27.9762
467 1 9.57094 19.7437 29.8506
384 1 11.6641 17.0226 26.5358
392 1 30.4004 17.3621 29.2399
5965 1 32.9366 20.0309 26.2787
479 1 5.05941 23.7356 28.3887
481 1 9.56643 23.9311 29.68
398 1 12.1732 21.7699 26.4557
483 1 14.295 24.3005 30.6566
400 1 16.7327 22.5081 27.1567
402 1 20.7578 21.9207 27.985
404 1 26.395 22.4229 28.3862
5978 1 32.3371 24.0921 26.5925
406 1 30.3237 21.4844 28.9852
501 1 22.3277 6.26037 37.3517
294 1 30.3348 8.1472 23.1928
412 1 12.6716 26.4542 26.9938
414 1 16.7522 26.6396 27.4418
416 1 20.8831 26.1995 27.8224
418 1 25.2412 26.1344 27.828
420 1 29.6797 25.8898 28.8809
563 1 4.35785 5.74731 41.9536
422 1 2.62938 7.98697 31.8683
424 1 7.28635 8.10342 32.0845
426 1 11.9312 7.88995 33.0193
477 1 0.481527 24.3479 28.3699
565 1 8.37925 5.91171 42.3075
662 1 5.27143 16.3798 50.6342
1833 1 27.7479 28.1626 31.334
436 1 3.06645 12.696 32.1613
438 1 7.66259 12.7008 32.3953
440 1 12.2271 12.5889 32.9274
443 1 18.7908 10.3973 30.8617
445 1 23.3617 10.8808 31.0038
447 1 27.9364 10.366 31.6377
6004 1 32.3303 10.5609 32.4052
454 1 11.9964 16.7722 33.1102
455 1 13.9224 14.6055 29.9329
457 1 18.2366 15.0419 30.8155
459 1 23.2028 14.8961 31.459
461 1 27.8997 14.8697 32.2803
6017 1 32.5738 15.0482 32.8505
450 1 2.47614 17.3658 31.697
452 1 7.32675 17.0271 32.8348
469 1 14.2692 19.3214 29.7606
471 1 18.179 19.6626 30.637
473 1 23.3872 18.9398 31.2371
475 1 28.1785 19.4287 32.3604
6030 1 32.0749 19.3603 32.6776
464 1 2.64551 21.2961 31.2301
466 1 7.33461 21.483 33.0876
468 1 11.7217 21.4247 33.0517
485 1 18.8964 24.6299 30.6469
487 1 23.3395 23.7236 31.1855
489 1 27.2355 23.6181 31.9834
6043 1 31.1991 24.4422 32.3249
478 1 2.61182 27.0142 31.5004
480 1 6.87155 26.1073 32.2261
482 1 11.2759 26.0865 32.9636
484 1 16.5922 25.7932 33.8705
428 1 15.8424 8.14387 33.7068
430 1 20.3997 8.51806 33.8281
432 1 25.0171 7.81196 34.3743
434 1 30.0452 8.18669 34.4769
507 1 5.4242 10.2218 35.5619
509 1 9.2665 10.6595 35.4353
511 1 13.1437 10.4611 36.9221
442 1 15.9906 12.369 33.863
444 1 20.4616 12.4716 33.8624
446 1 25.7223 12.3387 34.3194
448 1 29.8575 12.6561 35.7749
521 1 4.90675 14.8957 34.7947
523 1 9.274 15.2515 36.5833
525 1 13.3575 14.4912 37.0032
456 1 15.7437 16.9248 33.6184
458 1 20.3994 17.1868 33.8203
462 1 29.6093 17.1101 35.9154
700 1 32.4802 26.1232 48.5748
535 1 4.54871 19.6769 35.3888
537 1 9.54657 19.3855 35.8179
539 1 14.0749 19.278 36.5841
541 1 18.009 19.5711 36.8388
460 1 25.6075 16.9536 34.9302
6095 1 33.013 19.3131 36.9264
549 1 4.17394 23.9242 34.7468
551 1 8.8934 24.113 35.5694
553 1 13.8406 23.8362 36.4485
470 1 16.2726 21.6703 33.1269
555 1 18.3068 23.4975 36.7562
472 1 20.8734 21.787 33.9515
474 1 25.0076 21.7746 35.0463
476 1 29.1477 21.6125 35.5351
308 1 30.9812 13.0317 23.1284
361 1 23.0889 6.12806 24.3737
486 1 21.1535 26.3081 34.122
488 1 25.1226 26.5246 34.7952
490 1 29.812 26.3881 35.3243
492 1 2.3941 8.10468 38.2821
494 1 6.92283 8.34473 38.7033
496 1 10.5097 7.81237 39.5604
497 1 13.3799 5.79944 37.2881
641 1 22.7166 6.11433 48.288
498 1 16.2362 8.19558 39.4667
693 1 12.9023 23.5626 48.492
500 1 20.3231 7.80406 40.1577
571 1 21.9134 5.83325 43.427
691 1 8.272 23.8081 48.4564
504 1 30.5748 8.23013 39.0391
506 1 2.08037 12.6725 37.913
508 1 6.34037 12.9671 38.8709
512 1 15.3938 12.6099 39.573
513 1 18.4317 10.4545 36.7042
515 1 22.9419 10.321 37.4925
517 1 26.9798 9.96969 37.9166
518 1 31.1548 12.8823 39.6625
6069 1 33.7824 10.4261 36.7625
522 1 6.91814 17.5404 38.5947
510 1 10.8229 12.5107 39.8608
527 1 18.0482 15.1359 36.7016
529 1 22.8009 14.9884 37.1714
531 1 27.1955 14.3359 38.2896
6082 1 33.7121 14.9597 37.4145
520 1 2.26623 17.1194 38.0991
524 1 11.3337 17.376 39.8778
526 1 15.3296 17.0726 39.6094
543 1 22.6908 19.1279 37.4355
528 1 19.9934 17.1025 40.5027
545 1 26.6626 19.4424 38.917
532 1 30.5599 17.1745 39.9771
534 1 2.187 21.7832 38.2964
536 1 6.68677 22.3939 38.2265
538 1 10.8916 21.8858 39.3043
540 1 15.5176 21.6697 39.9945
557 1 23.0805 23.7258 37.4932
542 1 20.1011 21.6475 40.3635
546 1 30.5556 21.8316 39.9029
6108 1 32.9005 23.9322 37.0725
548 1 1.1811 26.2463 37.6464
550 1 5.84828 26.1317 38.3281
552 1 10.5485 26.0488 39.0289
554 1 15.3219 26.0621 40.1477
556 1 20.6326 25.9888 40.3189
559 1 26.9091 24.218 38.5994
560 1 30.1499 26.469 39.8556
1763 1 27.8836 28.3672 26.0855
697 1 23.1898 24.0411 49.0736
698 1 27.1545 26.375 50.539
502 1 24.6957 8.39632 40.7114
576 1 1.33105 12.2678 43.9838
577 1 3.72082 10.4204 41.6768
579 1 8.94977 10.2709 42.5239
581 1 13.6739 10.2118 42.1922
583 1 17.4795 10.7627 43.3404
514 1 19.9346 13.1735 40.6655
585 1 22.0167 10.3239 43.4357
516 1 24.6446 12.6739 40.7734
587 1 28.4761 10.2075 42.3092
591 1 3.70441 14.5101 41.5641
593 1 8.30021 14.8791 41.9207
595 1 12.5612 14.9358 42.6196
597 1 17.1855 14.9301 43.5942
599 1 21.7824 15.2778 44.3874
530 1 24.6309 16.8337 41.1385
601 1 28.3025 14.9133 42.7562
359 1 19.411 5.89295 23.4933
605 1 3.76757 18.9179 41.536
590 1 0.871264 16.8828 44.3247
607 1 7.68395 19.6269 41.8153
609 1 12.6835 19.4613 42.5992
611 1 17.6914 19.8029 43.7904
613 1 22.1406 19.3694 44.0122
615 1 28.0483 19.527 42.3433
619 1 3.69629 23.5578 41.7699
621 1 8.1916 24.369 42.1624
623 1 13.2295 23.7933 42.8256
625 1 17.805 24.1936 43.3703
627 1 22.6146 23.7876 44.0689
544 1 24.7469 21.8624 41.3278
629 1 27.6101 23.5374 43.0572
397 1 10.2022 19.2829 23.0612
616 1 31.8031 22.2677 44.1907
684 1 27.2583 21.8259 50.1061
674 1 0.571648 21.3416 50.6103
688 1 1.05491 26.1373 50.4024
558 1 24.5112 26.3253 41.3142
562 1 0.808162 7.9108 44.3952
564 1 6.26768 7.90566 44.8053
566 1 10.2778 8.05783 45.8226
568 1 15.1312 7.50768 45.5979
569 1 17.4864 6.31727 42.8894
570 1 19.6941 8.65367 46.4427
572 1 25.7054 7.94499 45.3801
574 1 31.9297 8.05911 44.2744
647 1 3.66916 10.177 47.4133
578 1 6.76473 12.6132 45.4953
580 1 10.771 12.7429 45.2215
582 1 14.9236 12.1113 46.3692
584 1 19.8723 12.6513 46.795
586 1 25.7437 12.6225 45.1542
657 1 29.4324 10.3091 46.7305
588 1 32.0321 12.7287 44.1199
661 1 3.28735 14.7891 47.6341
671 1 29.2747 14.8913 47.4233
592 1 5.43563 17.0251 45.1208
594 1 10.2076 17.6229 45.2368
596 1 14.885 16.8585 45.8469
598 1 19.4403 17.5704 46.6522
600 1 25.8235 17.3646 45.7139
685 1 29.2134 19.0384 46.8382
602 1 31.8561 17.5204 44.4459
604 1 1.31345 21.488 44.0871
689 1 3.77571 23.4997 47.5941
606 1 6.00663 21.3686 44.9013
608 1 10.1698 22 44.7687
610 1 14.5786 21.5688 45.7476
612 1 19.7076 21.8719 47.2792
614 1 25.3998 21.5521 45.7386
699 1 29.2914 23.6217 47.2772
618 1 1.97726 26.2319 44.163
503 1 27.1116 5.90592 37.6486
620 1 6.02869 25.8473 45.1226
622 1 10.4543 25.9379 45.2097
624 1 14.439 26.1919 45.7306
626 1 19.5018 26.4518 46.3423
628 1 25.6011 26.3206 46.0708
686 1 32.3039 21.302 48.5358
630 1 31.3816 26.2236 44.5506
350 1 30.8909 26.377 22.9131
683 1 23.2351 19.4133 49.1966
670 1 27.1096 17.2643 50.6871
519 1 0.608379 15.1497 34.1667
642 1 26.5339 8.42398 49.9761
644 1 32.497 8.14856 48.3499
493 1 4.59467 6.25128 35.4466
695 1 16.9315 23.7656 48.8116
649 1 8.1386 10.3307 48.3896
651 1 12.4895 10.4378 48.9445
653 1 17.557 10.8598 50.0589
655 1 23.068 10.8743 47.9436
656 1 26.6352 12.7492 49.7171
658 1 33.1167 12.6838 48.6738
660 1 1.14038 16.9765 50.44
681 1 17.4291 19.3823 49.6495
663 1 8.13516 14.8924 48.2523
665 1 12.8047 14.5019 49.1516
667 1 16.9855 14.9205 49.6836
669 1 22.9268 15.479 48.8075
672 1 33.0315 16.8906 48.9871
675 1 3.31947 19.3657 47.4081
677 1 7.78864 19.4848 47.9427
679 1 11.9341 18.8599 48.6895
643 1 29.0541 6.05167 47.1695
1965 1 8.38255 28.2649 41.7212
7291 1 32.1517 28.3899 32.0095
639 1 16.9902 5.96953 49.5118
363 1 28.1551 5.83941 25.7276
1827 1 14.0091 28.0201 30.7909
632 1 1.67552 7.58422 50.5628
1897 1 13.464 28.3233 36.5535
2037 1 12.6825 28.0809 48.9647
1757 1 14.2776 28.3394 23.8121
676 1 5.10113 21.1883 50.8531
1899 1 18.0342 28.3212 37.091
640 1 20.3386 8.29916 50.798
2041 1 23.3504 28.022 48.4406
696 1 20.4488 26.3909 50.3904
1825 1 9.82273 28.3186 29.2251
1973 1 28.2718 28.1337 43.0738
2039 1 16.4424 28.294 49.5778
573 1 28.348 5.91259 42.3513
5926 1 32.6757 5.70419 26.4628
355 1 10.5699 5.79744 23.3763
635 1 7.36426 5.78081 48.7631
5991 1 32.5247 5.88328 32.6352
423 1 5.68064 6.00781 28.8645
847 1 14.1991 6.14504 64.3737
912 1 0.835371 8.02427 73.3861
1010 1 1.48698 17.3035 78.5622
636 1 9.76949 7.75454 51.6813
638 1 14.5685 7.88269 52.3414
744 1 0.402314 21.2778 56.4525
712 1 27.7275 8.20933 54.5798
717 1 3.10513 10.211 54.1836
650 1 9.92146 12.7061 51.969
652 1 14.5646 12.5413 52.4871
723 1 18.1688 9.91952 54.2177
654 1 20.6795 12.6207 51.5054
725 1 23.9029 10.6045 52.9467
727 1 30.227 10.2492 51.4602
726 1 27.724 12.793 54.3918
692 1 9.92923 25.5434 51.8101
731 1 2.44555 14.4745 53.945
664 1 9.21933 16.5253 51.5925
739 1 24.4495 14.9854 52.68
741 1 30.2552 14.8381 51.9495
745 1 2.99789 19.145 53.8021
747 1 7.45892 19.6722 54.5239
666 1 14.5829 16.7891 52.0466
751 1 18.3091 19.4555 54.0631
668 1 20.8117 17.4033 51.3927
753 1 24.5177 20.0776 53.1592
755 1 30.8682 19.1266 51.4232
740 1 27.8202 17.7958 54.6482
742 1 33.4249 16.7188 53.7196
759 1 2.38341 23.9757 53.4941
678 1 10.9016 21.0729 52.1067
680 1 15.1416 21.405 52.4193
765 1 17.6763 24.1034 53.7908
682 1 20.1527 21.8464 51.8167
767 1 24.7687 23.8621 53.313
1072 1 20.7731 12.1357 79.253
754 1 27.5571 22.1485 54.6911
728 1 32.8979 12.5412 53.6256
711 1 23.8205 6.39726 53.0004
1105 1 33.9258 19.6108 76.3308
694 1 14.4705 26.0017 52.3515
6537 1 34.0315 19.4475 69.7041
1111 1 11.2038 24.0705 78.5874
768 1 28.0178 26.2684 54.9737
756 1 34.1042 21.5182 53.6925
849 1 21.1541 6.27409 62.6148
704 1 5.00934 8.05633 57.9857
706 1 9.69736 8.31634 58.0008
708 1 15.5223 8.3793 56.8514
710 1 22.0459 8.94219 55.9242
2177 1 12.7967 28.1623 59.0288
719 1 7.57176 10.6977 54.8822
720 1 9.72654 12.8442 58.356
721 1 11.9371 10.0595 55.211
722 1 15.7673 12.6256 57.1167
724 1 21.3472 12.9247 56.2555
795 1 25.19 10.6061 57.4707
797 1 31.3415 10.2974 56.116
733 1 7.12336 15.1804 54.8555
718 1 4.87513 12.5463 57.6616
735 1 12.2348 14.6858 54.8016
737 1 18.6564 14.7491 53.9919
809 1 25.1582 15.0998 57.3015
811 1 30.2389 14.8207 56.725
702 1 0.68724 8.07575 56.6021
732 1 4.81644 17.0775 57.1
734 1 9.97884 17.3812 57.6195
749 1 12.1584 19.3569 55.2431
736 1 15.6712 17.2325 56.5786
738 1 21.3325 17.3257 55.2796
823 1 24.9012 19.573 57.7517
825 1 30.9773 19.2905 55.9129
1055 1 11.536 6.16354 78.6566
761 1 7.78773 23.6917 54.4209
746 1 4.58663 21.5236 56.7075
748 1 9.69057 21.7191 58.0115
763 1 12.7355 24.0305 55.1805
750 1 15.5417 21.7711 57.0932
752 1 21.6377 22.1806 55.5851
837 1 25.5931 24.6772 57.5127
839 1 31.2992 24.0466 56.3459
1118 1 31.036 26.0753 78.7171
760 1 4.96579 25.5121 57.0257
764 1 15.5783 26.9059 56.8847
766 1 21.3794 26.4601 55.1999
2111 1 23.8269 28.3719 52.9069
777 1 13.3036 5.62405 59.8027
845 1 8.06526 5.86623 65.489
780 1 22.8673 8.67022 59.9261
779 1 19.0959 5.95047 58.4091
782 1 28.8514 7.91043 59.3282
773 1 2.55805 5.95226 59.8434
1026 1 7.29614 21.8792 76.6788
787 1 2.00806 10.5345 60.0965
789 1 6.80837 10.3429 61.0911
791 1 13.3087 10.0768 59.6857
793 1 19.5374 10.2087 58.7601
794 1 22.8607 12.7035 60.6884
796 1 28.4534 12.4178 59.1493
867 1 32.366 10.2624 60.3546
801 1 2.46282 14.4286 60.2296
803 1 7.04149 14.9504 60.2381
805 1 13.3123 14.7009 59.2519
807 1 19.194 14.9543 58.6452
806 1 16.1558 17.1676 60.8386
808 1 22.8958 17.3118 60.1897
810 1 28.5533 17.4459 59.2751
881 1 31.9752 14.3945 60.9925
815 1 2.39379 19.0999 60.1295
817 1 6.96779 19.3734 60.6993
819 1 13.4634 19.7081 59.7477
821 1 19.2207 19.5758 58.4483
893 1 26.5099 19.7747 61.8908
895 1 31.5801 19.6419 60.5926
829 1 1.89416 23.5963 59.8024
831 1 6.56935 23.2371 60.7044
833 1 13.3417 24.1374 59.8304
820 1 16.7605 21.8291 61.806
835 1 19.1506 24.168 58.6597
822 1 22.9489 21.8595 59.7538
907 1 26.5496 23.7191 62.0494
824 1 28.8363 21.4874 58.1706
909 1 32.6197 23.9097 60.7426
2459 1 22.8187 28.181 76.4102
762 1 9.51484 25.9676 57.9477
834 1 16.6961 27.0061 61.4949
2173 1 2.578 28.2717 59.777
836 1 22.8768 25.7393 60.2902
838 1 28.9226 26.22 59.1093
1021 1 33.7859 14.6023 69.676
774 1 3.96524 8.41737 63.6525
776 1 11.0102 8.01847 62.4112
812 1 34.0699 17.3903 58.2762
778 1 17.3998 7.77937 62.0516
707 1 12.4955 6.12739 55.2997
850 1 23.8858 7.78679 64.9291
852 1 29.4047 8.15657 63.3495
788 1 4.12628 13.1176 63.4822
790 1 10.7819 12.7953 62.2804
861 1 14.3856 10.5189 63.9044
792 1 16.4323 12.477 60.999
863 1 20.4072 10.6438 63.0877
865 1 26.351 10.3906 62.2093
864 1 23.686 13.1016 64.7949
866 1 29.772 12.7458 63.6926
804 1 11.115 17.3945 61.573
875 1 14.1878 14.8353 64.3506
877 1 19.8881 15.3832 63.3065
879 1 26.3726 15.0141 62.71
880 1 29.6757 17.2448 63.7403
802 1 4.1461 17.2442 63.6151
889 1 14.2532 19.6118 64.4623
891 1 20.9163 19.6905 63.0883
878 1 23.6494 17.4848 64.8569
1033 1 33.0701 19.5438 65.0341
816 1 4.21737 21.8303 63.5064
818 1 10.6057 21.3467 62.369
903 1 14.3367 24.3116 64.2355
905 1 19.6112 23.948 63.326
892 1 23.8499 22.0776 64.5495
894 1 29.5539 22.4275 63.8128
830 1 4.62 26.172 63.2303
832 1 10.5126 25.4163 62.2716
1024 1 1.30936 21.3636 77.7075
1090 1 31.4608 16.8034 78.9524
906 1 23.8771 26.2161 64.8632
908 1 29.6535 26.0851 63.5709
1101 1 23.3432 18.7212 77.0538
844 1 5.57124 7.82819 67.9749
1042 1 13.1017 26.4906 76.0877
846 1 11.6436 8.15698 66.8654
848 1 18.2509 7.77204 66.3075
2461 1 29.2712 28.4361 75.2459
922 1 31.0284 8.17213 68.4387
857 1 1.84668 10.3603 66.561
858 1 5.97725 12.3434 67.6417
859 1 7.99903 10.5233 64.8341
860 1 11.7883 12.9512 66.5988
931 1 15.1805 10.3869 68.5829
862 1 17.4867 12.9387 65.6678
933 1 21.0076 10.3738 67.5742
935 1 26.8879 9.6633 66.9578
937 1 32.52 10.2767 65.0564
936 1 30.0696 12.677 68.1447
871 1 2.24411 14.929 66.2742
873 1 8.3138 15.0677 64.5613
872 1 5.33911 16.5893 68.043
945 1 15.1749 15.2694 68.9998
947 1 21.256 14.8247 67.6283
949 1 27.0618 14.4225 66.7045
951 1 33.1046 14.5125 65.448
950 1 30.5826 17.3718 68.356
885 1 1.95027 18.8237 66.2697
887 1 7.68621 18.8702 65.2083
874 1 11.4396 16.9821 67.2068
959 1 15.1224 19.4084 68.8482
876 1 17.9215 17.4246 65.8597
961 1 20.8352 19.4554 67.7962
963 1 27.4431 19.6283 66.3985
899 1 2.18273 23.7071 66.1486
901 1 8.26939 23.4889 64.949
886 1 5.3741 21.3361 68.14
888 1 11.5903 21.6427 66.7427
973 1 14.8824 24.276 68.7505
890 1 17.9434 21.9764 66.0317
975 1 21.0025 23.6971 67.7002
962 1 24.7339 21.3999 69.002
977 1 27.5457 24.3354 66.3263
1035 1 31.0533 21.6369 68.0463
964 1 33.5713 24.1429 65.3869
900 1 5.51193 26.0081 67.7176
902 1 11.1617 26.2506 67.0328
904 1 18.0226 26.5148 66.0215
976 1 24.6114 25.9871 69.6404
1088 1 27.2822 16.5229 78.2375
978 1 30.7062 26.4653 67.9266
2175 1 7.06401 27.7849 60.2946
714 1 33.4919 8.26345 53.1364
914 1 6.57103 7.95435 72.5256
915 1 9.16086 5.93426 70.2312
916 1 13.0833 7.72212 71.2611
918 1 18.1398 7.93478 70.3538
1040 1 7.17455 25.9988 77.133
920 1 25.0426 7.64543 69.943
2391 1 28.1254 28.1729 70.7727
927 1 3.28548 10.0329 70.7131
929 1 8.98899 10.5968 69.6108
930 1 12.1886 12.1578 71.2406
932 1 19.004 12.6406 70.1348
1003 1 22.1135 9.62892 72.0577
934 1 24.8857 12.1794 69.2881
1005 1 28.384 9.71159 71.0729
1006 1 31.885 12.2854 73.13
941 1 2.98875 14.4351 70.8188
943 1 8.98111 14.4021 70.0955
1017 1 22.7889 14.1735 72.2108
1019 1 28.121 14.0217 71.3365
955 1 2.37947 19.0256 70.8799
957 1 9.01904 19.0096 69.6582
944 1 12.5337 16.8767 71.2726
946 1 18.7964 17.5151 70.5567
1031 1 22.9865 18.75 72.2229
948 1 25.3721 16.9796 68.9793
1020 1 28.1965 18.8866 70.9821
1022 1 31.8144 16.8869 72.3354
969 1 2.94509 23.5849 69.932
971 1 9.39059 24.4677 69.6903
958 1 12.4975 21.4145 71.3203
960 1 18.3311 21.5518 70.647
1047 1 27.8042 23.7269 71.0147
1034 1 31.5955 21.6644 72.8277
1113 1 17.1111 23.6234 78.0211
1102 1 26.7948 21.383 78.8682
972 1 12.7225 25.9901 71.6759
974 1 18.0115 26.1752 70.5571
1045 1 22.5283 23.2162 71.8891
2455 1 10.8049 28.3712 78.4892
2457 1 17.3049 28.3122 77.304
986 1 13.3783 8.3279 75.6682
1028 1 13.2398 21.8858 76.0304
988 1 19.2213 7.84627 75.4503
990 1 25.7249 7.05951 73.8524
2319 1 21.2475 27.7748 67.5621
992 1 32.2972 8.20585 73.1578
997 1 4.26467 10.333 75.7998
928 1 6.24736 12.9301 72.6399
999 1 9.93446 10.8315 74.042
1000 1 13.4283 12.8675 75.7271
1001 1 16.2561 10.4444 72.8836
1002 1 19.7654 12.635 74.8828
1075 1 29.3701 9.64175 75.4184
1077 1 34.1172 10.1742 75.5438
1011 1 3.95715 14.9225 75.2847
942 1 6.0751 17.2461 72.7212
1013 1 10.0804 15.2325 74.2911
1015 1 15.9227 14.6047 73.0242
1004 1 25.6151 12.1515 73.6901
1089 1 29.282 14.3765 75.3868
1025 1 3.78249 19.5761 75.3108
1027 1 10.1527 19.1297 74.0356
1029 1 15.9209 19.3118 73.551
1016 1 19.6088 16.5788 74.8493
1018 1 26.1546 16.5708 73.7406
1103 1 29.714 18.9665 76.0523
634 1 5.86861 7.88859 51.6778
1039 1 4.02805 23.3978 74.6661
956 1 6.49799 21.6545 71.9932
1041 1 9.69962 23.5973 74.2215
1043 1 15.3873 23.8264 73.477
1030 1 19.8972 21.1906 75.0743
1032 1 25.9686 21.2729 74.6097
1117 1 29.3446 23.6227 75.4846
1116 1 26.379 26.1306 78.121
970 1 6.27978 26.2892 71.7587
1104 1 30.635 21.2834 79.1005
1044 1 19.4304 25.4197 74.6167
1046 1 25.6216 25.8484 73.5152
1115 1 23.0974 23.4871 76.622
1048 1 32.1014 26.1048 72.4704
982 1 1.91661 8.32265 77.7613
984 1 7.82913 7.9132 77.252
2245 1 8.24646 28.0881 64.9809
1099 1 16.7635 19.2712 77.4574
1060 1 26.7908 7.82932 78.1845
1062 1 31.6465 7.52253 78.5344
996 1 1.7872 12.3976 77.9217
998 1 7.3801 12.4382 77.1812
1069 1 10.8443 10.8131 78.8201
1071 1 16.7871 10.2934 77.555
1073 1 23.2449 10.0527 76.5815
770 1 33.7788 26.414 53.058
1074 1 26.8754 12.6951 78.2103
1076 1 31.2789 12.0361 78.7725
1012 1 7.31648 16.9419 76.9874
1083 1 11.012 15.5096 78.4318
1014 1 13.8423 17.3721 75.7838
1085 1 17.1395 14.8532 77.5311
1087 1 22.8288 14.7187 76.6757
1091 1 33.7956 14.8585 76.4173
843 1 2.66232 5.77161 66.7261
1097 1 10.7821 19.3394 78.7351
1038 1 1.66024 25.6458 77.8566
709 1 18.2803 5.4935 53.8836