ITEM: TIMESTEP
332000
ITEM: NUMBER OF ATOMS
16000
ITEM: BOX BOUNDS pp pp pp
3.7014220911850515e-01 1.0182985779088436e+02
5.7157709346816503e+00 9.6484229065314793e+01
-5.1605306451108035e+00 1.0736053064510835e+02
ITEM: ATOMS id type x y z
4 1 10.7601 8.26969 -4.92827
350 1 30.7157 26.7273 22.8488
153 1 30.0239 6.12927 6.91321
8 1 19.2533 8.26927 -4.04778
10 1 23.9315 8.58886 -3.4442
12 1 28.2839 7.98822 -2.38923
14 1 32.9717 8.40884 -2.66911
85 1 4.22931 10.4778 -3.01533
87 1 8.19124 9.94622 -2.17298
289 1 20.2354 6.02235 17.9847
89 1 12.0893 10.2997 -1.4464
20 1 15.0912 12.3798 -4.54382
22 1 20.0971 12.4413 -3.06768
24 1 24.5134 12.5183 -3.12963
26 1 28.6107 12.4976 -2.29803
99 1 3.61369 14.8043 -2.71621
101 1 7.65475 14.6872 -1.55193
34 1 14.8087 17.2031 -4.12709
103 1 12.2323 14.8345 -1.66254
105 1 16.6601 14.9401 -1.20975
42 1 33.3354 17.3228 -2.07405
113 1 3.7963 19.4568 -3.12268
115 1 8.36621 19.3021 -2.24331
117 1 11.9795 19.429 -1.5036
36 1 19.0116 16.7856 -3.47003
38 1 23.4657 17.2383 -2.99257
40 1 28.3788 16.9001 -3.10333
127 1 3.12979 23.965 -2.69502
129 1 7.79114 23.4801 -2.65141
131 1 12.0622 23.8659 -1.4317
50 1 19.1781 21.2489 -3.83536
52 1 23.8549 21.8576 -3.1703
54 1 27.8335 21.2517 -2.50555
62 1 14.5472 26.4578 -4.00594
18 1 10.5319 13.0563 -4.87096
64 1 19.8172 25.8931 -3.73756
66 1 23.4758 26.8085 -3.29998
68 1 28.6153 26.0001 -2.61697
10878 1 0.97325 7.92526 1.04294
72 1 5.44926 8.14968 1.16985
74 1 10.0404 7.97694 1.87741
76 1 14.8628 7.87404 1.53195
6 1 14.5302 8.03175 -4.75663
5835 1 34.0325 19.1916 13.9183
77 1 17.3812 5.7788 -1.02043
1693 1 28.7588 27.7034 19.7318
10891 1 1.33331 12.3343 -0.025274
86 1 5.64669 12.5526 1.09603
88 1 10.3117 12.5848 1.77873
90 1 14.7162 12.5943 1.76898
91 1 16.9315 10.4302 -0.854325
93 1 21.5993 9.85329 -0.410394
95 1 25.8875 10.1757 0.677882
28 1 33.3401 12.7754 -2.33502
97 1 30.65 10.2368 0.876572
102 1 10.2607 17.4896 1.50693
107 1 21.1657 14.6509 0.184944
109 1 25.2163 15.1334 -0.261589
111 1 31.3835 14.6096 0.581232
10904 1 0.922526 16.9202 0.618028
100 1 5.34073 17.1572 0.618581
104 1 14.2056 17.2428 2.05483
119 1 16.7486 19.3399 -0.310004
121 1 21.5603 19.227 -0.180333
123 1 25.6156 19.2853 -0.201612
125 1 30.523 19.3488 0.673472
10917 1 0.978027 21.0043 0.0456987
114 1 4.99943 21.5405 0.607873
116 1 9.39712 22.0679 1.16025
118 1 14.0193 21.8931 2.48468
133 1 16.7925 23.9025 -0.693669
135 1 21.2539 23.7138 0.313187
137 1 25.3306 23.9221 0.244873
139 1 30.5494 24.1831 0.698438
56 1 32.6008 21.1781 -2.13763
128 1 5.63517 26.0585 0.786784
130 1 10.1481 26.0415 1.26874
132 1 14.3226 26.2342 1.7433
294 1 30.8701 8.36116 23.0933
70 1 33.7002 25.8029 -2.01404
60 1 10.7164 26.065 -5.01406
10969 1 1.10281 16.9355 6.68392
349 1 29.0448 23.5599 19.3629
32 1 10.1913 16.8947 -4.74933
78 1 19.3679 7.52567 2.4386
80 1 23.3211 8.20484 2.88967
82 1 27.977 7.9268 3.74527
84 1 32.4879 8.21565 4.30633
155 1 2.7282 10.3042 3.29074
157 1 7.52582 9.79525 4.35741
159 1 12.1828 10.1216 4.53312
92 1 19.2127 12.1647 3.03353
161 1 16.6539 9.95989 4.90297
94 1 23.4297 12.6823 3.47102
96 1 28.0556 12.7263 3.25914
98 1 32.8151 12.6653 3.86008
169 1 3.44789 14.3904 3.55021
171 1 7.61961 15.8018 3.73151
173 1 12.1479 14.9318 5.11841
175 1 16.0571 14.8116 5.69042
108 1 23.8667 17.0269 3.34184
110 1 28.1195 17.0024 3.12429
183 1 2.82116 19.6058 3.67714
185 1 7.34872 19.5752 4.22105
187 1 11.68 19.7174 4.94744
106 1 19.2772 17.0452 2.77567
189 1 17.0031 19.5958 5.0711
112 1 32.9411 17.1147 3.32861
197 1 3.01668 23.9355 3.18799
199 1 6.82168 23.3753 4.13056
201 1 11.173 24.6025 4.81439
120 1 18.6447 21.4815 2.21286
122 1 23.2502 21.6357 2.98913
124 1 28.0387 21.7659 3.9605
126 1 32.7987 21.7874 3.94312
48 1 14.7583 21.9134 -4.3878
346 1 22.1154 26.8996 21.897
134 1 18.601 26.3513 2.96961
136 1 23.1371 25.8374 3.12171
138 1 27.6192 26.4002 3.48621
140 1 32.3618 26.4888 3.68789
142 1 4.97836 7.68516 7.03119
144 1 9.82679 7.60256 7.37622
146 1 14.2552 7.66878 8.15362
148 1 18.8689 7.70215 8.53607
334 1 26.4791 21.4875 22.6963
344 1 17.818 26.5821 20.8672
71 1 3.45166 5.83533 -2.65131
351 1 0.983394 5.82398 22.0378
156 1 4.37671 12.9278 6.80917
158 1 9.4159 12.3006 7.49063
160 1 14.1351 11.7196 7.7294
162 1 18.2359 12.6516 8.37329
163 1 21.1462 10.4111 5.92615
165 1 25.6867 10.331 6.41606
167 1 29.8804 10.342 6.66118
291 1 24.5736 5.44398 18.9921
172 1 8.90986 16.8287 7.48077
174 1 14.2696 17.6191 7.91691
177 1 21.3413 15.1914 5.62407
179 1 26.2393 14.5703 6.63007
181 1 30.2333 15.09 6.93372
348 1 26.1146 26.171 22.0774
170 1 4.91278 17.46 7.00177
176 1 18.3255 17.3474 8.40939
191 1 21.5174 19.239 6.75833
193 1 25.5179 19.3158 5.84086
195 1 30.2974 19.4148 6.56911
151 1 25.3577 6.0759 6.77264
184 1 4.63888 22.0217 7.13328
186 1 9.27418 21.4922 7.64127
188 1 13.9405 22.0985 7.6716
203 1 16.6992 23.7954 5.20986
190 1 19.0521 21.6565 8.75306
205 1 21.2016 23.9609 6.0554
207 1 25.8144 24.2705 6.4524
209 1 30.2704 24.9025 6.55777
198 1 4.42156 26.1671 6.94053
200 1 9.29494 26.1336 8.24347
202 1 13.9642 25.9634 8.31114
332 1 21.9257 22.0197 21.4127
330 1 17.619 21.3102 20.5499
328 1 13.1411 21.3861 20.3584
1681 1 1.47744 28.2856 15.5314
293 1 28.9215 5.76747 19.6742
83 1 30.6221 5.57731 1.10604
342 1 13.3015 26.0052 20.0902
150 1 23.5652 7.66473 9.49262
152 1 27.844 7.90442 10.0846
154 1 32.4987 8.58865 10.2288
225 1 2.3809 10.1695 10.0864
227 1 7.06583 10.1426 10.7464
229 1 11.2704 9.54782 10.6738
231 1 16.3476 10.0913 11.5411
164 1 22.4737 12.1687 9.03443
233 1 20.3352 10.1155 11.7546
166 1 27.9012 12.2914 9.80738
168 1 32.4896 12.4891 9.91864
239 1 2.44825 14.8042 10.1183
241 1 7.10243 14.475 10.0546
243 1 11.3569 14.3548 10.7027
245 1 15.9131 14.6846 10.983
247 1 20.2493 14.2595 11.4202
253 1 2.49445 19.2919 9.33674
255 1 6.94091 19.5556 10.4051
257 1 11.7211 19.0547 10.5855
259 1 16.0017 19.1916 11.352
178 1 23.4155 16.3266 9.82414
261 1 21.2229 18.891 11.4664
180 1 27.8057 17.8039 9.31887
182 1 32.2854 16.778 10.1369
267 1 2.00757 23.5059 9.61405
269 1 6.36959 23.5108 10.7772
271 1 11.929 23.6818 10.7585
273 1 15.8506 23.2413 10.8302
192 1 23.6581 21.7855 8.77136
194 1 28.4371 22.3526 9.7847
196 1 32.3167 21.6226 10.1567
340 1 8.10152 26.0144 19.8868
141 1 2.92506 5.81589 3.76106
204 1 18.6524 26.2082 8.53279
206 1 23.2587 26.3542 9.30263
283 1 6.17925 5.82735 16.5992
208 1 27.1019 26.1779 9.93426
210 1 31.7529 25.4626 10.6006
212 1 3.92197 7.89548 12.9485
214 1 9.06746 8.10753 13.5618
216 1 13.604 8.12844 14.5788
218 1 18.3042 7.10908 14.7619
220 1 22.7519 7.77894 15.0806
5913 1 33.6361 24.2333 20.2921
222 1 27.1282 7.84191 15.8452
223 1 30.1127 5.72896 13.1831
226 1 4.42107 12.254 13.0743
295 1 1.44096 10.3049 16.0891
230 1 13.6321 12.1574 13.8771
232 1 18.2447 12.4527 15.1263
234 1 22.2667 12.3755 15.2814
235 1 25.1204 10.3906 12.0233
237 1 30.0716 10.5267 13.6302
1551 1 25.4985 28.2069 6.52863
309 1 1.91247 14.3881 15.9448
228 1 9.23103 12.7961 13.6406
248 1 22.9466 17.0668 15.1583
249 1 25.524 14.6771 12.7252
251 1 29.9919 14.6305 13.3732
369 1 10.5974 10.1884 22.8355
240 1 3.56686 16.7769 13.2379
242 1 9.42657 16.6909 13.4864
244 1 13.8777 16.8195 14.0432
246 1 18.1235 16.9534 14.6637
263 1 25.6239 19.2445 12.1361
265 1 30.0548 19.2833 13.2046
1613 1 6.78368 28.4201 10.4836
254 1 4.28215 21.359 12.9127
256 1 9.05154 21.4312 13.8146
258 1 13.47 20.8902 13.8604
260 1 18.4489 21.5382 14.0944
275 1 20.6597 23.5994 11.9108
277 1 25.4484 23.7598 12.4154
279 1 29.7867 23.5743 13.7203
407 1 1.37985 23.8014 21.6478
268 1 4.06593 26.0326 13.0969
1683 1 6.13363 28.275 16.1685
270 1 8.67133 25.6 13.2029
272 1 13.9569 25.8098 13.9388
274 1 18.515 26.6411 14.8824
79 1 21.5603 5.84009 -0.590529
326 1 8.37516 21.4119 19.5421
282 1 3.69667 7.41387 19.6707
5900 1 33.4398 19.6561 20.3755
409 1 5.92897 23.9533 22.4681
75 1 12.6064 5.73502 -1.48395
1617 1 15.8532 28.2516 11.3389
224 1 31.7205 7.98564 16.7669
296 1 3.7237 11.7498 19.6358
297 1 6.47926 9.77636 16.397
299 1 10.9549 9.77879 16.7546
301 1 15.5411 9.72982 17.371
303 1 20.2666 10.6396 18.9528
236 1 26.9684 11.8716 15.4107
305 1 24.9684 10.1275 18.3182
307 1 28.8357 10.4254 19.397
238 1 31.8122 12.4487 16.7762
310 1 3.75482 16.9256 19.0984
311 1 6.17945 15.0144 16.0783
313 1 10.9119 13.9624 16.9605
315 1 15.585 14.2098 17.3336
317 1 19.38 15.009 17.9043
319 1 23.7698 14.7317 18.9448
5887 1 33.6958 14.9737 20.1114
323 1 1.43679 19.1185 15.8017
325 1 6.43634 18.921 16.4408
327 1 10.8225 18.6867 17.4194
329 1 15.7878 19.0458 17.3967
331 1 20.03 19.4606 18.0099
333 1 24.705 19.2695 18.7672
250 1 26.6092 16.3815 15.8654
252 1 31.1966 17.0543 16.8685
337 1 1.86404 23.5379 16.1124
324 1 3.61919 21.5849 19.03
341 1 11.1739 23.9239 16.8482
343 1 15.4104 23.4967 16.7756
262 1 22.9021 21.4756 14.9349
345 1 19.9083 24.1036 17.7031
264 1 27.3462 20.8533 15.9329
347 1 24.4304 24.0069 19.052
266 1 32.0382 21.7036 16.6036
338 1 3.57542 25.5873 18.7259
339 1 6.46399 23.4688 15.7952
276 1 22.6693 26.014 15.58
278 1 27.3846 26.2796 16.0016
280 1 31.7022 26.198 16.3856
1479 1 21.4571 28.2782 -0.707582
284 1 7.98875 7.96576 20.407
286 1 12.7944 7.77771 20.4914
288 1 17.7497 7.66082 20.9432
290 1 22.4869 7.4267 21.5127
292 1 26.2243 8.34237 22.4165
73 1 8.06832 6.06155 -1.91582
365 1 1.49173 10.3318 22.5824
367 1 5.9269 10.3494 22.4928
298 1 8.08967 12.3666 19.4374
300 1 12.5947 11.891 19.8243
302 1 17.2551 11.8887 21.0088
304 1 21.6085 12.9827 21.6321
306 1 26.5091 12.669 22.1572
5874 1 33.1645 10.4409 20.4785
379 1 1.42745 14.4664 22.2986
381 1 5.74514 15.1481 22.1952
314 1 13.0249 16.6854 20.4691
321 1 29.3718 14.9567 19.6489
393 1 0.81434 19.1899 21.956
395 1 5.48325 19.2453 22.7154
312 1 8.33833 16.6407 19.9872
316 1 17.5491 16.6433 20.8358
318 1 21.6919 16.8423 21.6312
320 1 26.393 16.805 21.7795
335 1 29.4441 19.6818 19.9102
1543 1 7.20726 28.2149 4.36381
1477 1 16.6417 28.412 -0.330592
1753 1 5.87421 27.9243 22.3117
1685 1 10.7953 28.1138 16.6713
1619 1 20.5216 28.1355 12.1477
1687 1 15.4114 28.0305 17.8512
1483 1 30.3395 28.5664 0.199454
322 1 30.7922 17.3883 22.7942
1755 1 10.4382 28.2318 22.4009
308 1 30.9785 12.9375 22.6309
352 1 3.11174 8.11071 25.3769
354 1 7.86318 8.24873 26.2403
449 1 0.717548 15.0427 28.2363
397 1 10.1701 19.1722 23.1142
5940 1 34.3308 12.8349 29.7554
571 1 22.1349 6.05309 43.7637
565 1 8.75072 5.6209 41.58
366 1 3.32322 12.2219 25.8051
368 1 7.26124 12.6848 26.0726
363 1 28.3559 5.93323 26.0981
371 1 14.8856 10.3607 23.4085
373 1 19.2997 10.2557 24.5535
375 1 23.6335 10.4596 25.096
377 1 28.3202 10.6217 25.595
359 1 19.4886 5.83863 24.8136
380 1 2.7379 16.7105 25.3683
688 1 1.34139 25.757 50.6284
497 1 13.8715 6.11589 36.3436
387 1 18.9632 15.0712 24.982
389 1 23.9305 15.0164 25.3605
391 1 28.6185 15.1401 25.5229
5952 1 32.54 15.0862 26.3903
357 1 14.6281 5.68891 23.921
382 1 7.50363 16.8429 26.2043
411 1 10.6941 23.4819 23.0045
641 1 22.7757 5.94146 48.5179
401 1 19.2852 18.9314 24.0797
403 1 23.6345 18.8339 25.2241
405 1 28.2813 18.9691 25.3193
5965 1 32.8647 19.6238 26.5739
394 1 3.28262 21.4614 25.3921
396 1 7.81898 21.5702 26.0994
643 1 29.4678 6.10541 47.2462
413 1 15.0763 23.5621 23.7798
415 1 19.5042 23.8297 24.2602
417 1 23.7658 23.415 24.9228
419 1 28.313 24.1415 25.3064
408 1 3.69671 25.9403 24.9993
1757 1 14.7535 28.2239 23.8715
495 1 9.17382 5.80078 35.5884
427 1 14.4616 5.88072 30.1831
385 1 14.9048 14.5398 24.2551
662 1 5.4769 17.3549 51.0279
356 1 12.4272 7.61783 26.6634
358 1 17.3586 7.78516 27.1875
360 1 21.1651 7.85852 27.8331
362 1 25.5171 8.40093 28.662
493 1 4.36009 5.63084 35.6922
364 1 29.4885 8.25957 28.8618
435 1 0.70826 10.3227 28.848
437 1 5.08019 10.3943 28.9386
439 1 10.3582 10.2289 29.7724
370 1 12.3009 12.072 26.7911
372 1 16.9671 11.483 27.4663
374 1 21.6189 11.9747 28.2091
376 1 25.236 13.2187 28.3141
5939 1 32.8305 10.6492 26.5835
378 1 29.5144 12.876 29.3048
477 1 0.937759 23.9695 27.9432
451 1 4.89681 15.0226 29.0945
453 1 9.65968 14.6668 29.7081
386 1 16.5853 17.4843 27.171
361 1 23.9628 5.88753 25.0936
465 1 5.04892 19.5276 29.1696
467 1 9.73978 19.2866 29.4252
384 1 12.213 16.9374 26.4118
388 1 20.4759 16.7153 28.1018
390 1 25.2391 17 28.4907
392 1 29.7672 17.0049 28.9093
425 1 9.89382 5.94279 30.1103
479 1 5.51755 24.0511 28.3568
481 1 9.44202 23.8917 29.6915
398 1 12.5695 21.7043 26.3332
400 1 17.1866 21.2888 27.2797
402 1 21.0813 21.4625 27.7295
404 1 25.4258 22.1118 28.5496
406 1 30.1625 21.5783 29.0372
5978 1 32.7471 24.2068 26.2508
6147 1 34.0073 14.9363 41.65
410 1 8.02153 26.2174 25.9159
433 1 28.1562 6.14538 31.8752
700 1 32.9499 25.8319 48.8771
412 1 12.3857 25.8375 26.8101
414 1 16.7762 25.6488 27.752
416 1 21.3787 25.943 27.8544
418 1 25.2001 26.1863 28.998
420 1 29.9304 25.306 29.4803
336 1 30.7972 22.0126 23.5233
422 1 3.05979 7.70982 31.8927
424 1 7.26428 7.79428 32.4868
426 1 12.3317 8.49935 33.2698
6173 1 34.1717 23.1457 41.7592
569 1 17.5882 6.17802 43.3496
436 1 2.96214 12.6511 31.6459
438 1 6.86995 12.4069 32.5059
440 1 11.7345 12.778 33.0951
441 1 14.2013 9.93929 29.6495
443 1 18.4807 9.80166 31.1802
445 1 22.9727 10.2739 31.1742
447 1 27.5663 10.1939 32.6674
6004 1 32.2555 9.96003 31.9496
450 1 2.80598 17.3336 31.5272
455 1 14.0627 14.5117 29.7703
457 1 18.1258 14.362 31.0743
459 1 23.2737 14.9531 31.3588
461 1 27.4171 15.1046 32.2431
6017 1 31.7159 14.5684 32.5674
452 1 7.39362 17.1655 32.4177
469 1 13.8759 19.3734 30.2296
454 1 11.5588 16.7414 33.1131
471 1 18.1271 18.9087 30.9834
473 1 22.9226 19.2461 31.2659
475 1 26.8669 19.6165 31.331
6030 1 31.3654 19.1609 31.9955
464 1 2.57193 21.8335 31.5176
466 1 7.22765 22.0683 32.2011
468 1 11.1703 21.5086 33.2625
483 1 14.1742 23.4758 30.3221
485 1 18.815 23.527 31.1369
487 1 23.407 23.7139 31.3406
489 1 27.9466 23.3639 32.2256
6043 1 32.3886 23.7358 32.7853
478 1 2.83648 26.369 31.7225
480 1 7.2104 25.9757 32.3213
482 1 11.609 26.062 32.9312
698 1 27.1742 26.2684 50.6373
429 1 19.05 5.96915 31.0409
1827 1 14.1583 28.0068 30.8965
428 1 16.1278 7.58052 33.3671
1901 1 22.2505 28.3122 37.3961
430 1 20.6773 7.79615 34.765
432 1 25.2449 7.50405 34.6338
434 1 30.3147 7.93046 35.772
507 1 4.76564 10.2224 35.3703
509 1 9.05079 10.2118 36.0448
511 1 13.6196 10.2124 36.5365
442 1 15.5358 12.246 33.4584
444 1 20.271 12.3429 34.1903
446 1 24.9953 12.1042 34.9227
448 1 29.92 12.4354 35.4231
521 1 4.57761 15.0498 35.0724
523 1 8.81361 14.8785 35.9795
525 1 13.624 14.9432 36.8419
456 1 15.8663 16.7501 33.4513
460 1 25.2071 17.7642 35.1482
462 1 29.9384 17.1433 35.217
535 1 4.58294 19.8219 35.391
537 1 8.9335 19.3748 35.7589
458 1 20.5769 16.7964 34.3711
549 1 4.10619 23.8061 35.3927
551 1 8.6239 24.0375 36.2403
470 1 16.0417 20.9738 33.6595
555 1 18.1634 23.6718 36.9664
472 1 20.7782 21.4188 33.7118
474 1 24.7708 21.974 34.7868
476 1 30.0238 21.9178 35.3052
1967 1 13.5763 28.2895 43.1265
1973 1 28.4423 28.2319 42.8575
1831 1 23.3004 27.9647 31.5989
484 1 16.2025 25.5905 33.8137
486 1 20.8042 26.1428 33.9659
488 1 25.0622 25.7317 35.1319
490 1 29.687 25.8379 35.4909
492 1 1.53507 7.77001 38.0098
494 1 6.30812 8.08137 38.6218
496 1 11.2473 7.79347 39.5223
498 1 15.8185 7.67545 40.2052
383 1 10.3565 14.4791 23.1742
689 1 3.30678 24.0205 47.9685
6069 1 33.5098 10.2436 37.2443
504 1 30.794 7.82309 39.8512
506 1 2.23526 12.4312 37.9168
508 1 6.0819 12.1173 38.4678
510 1 10.7706 12.5525 39.3563
512 1 15.5813 13.0552 39.9317
513 1 18.0892 9.74184 37.6492
515 1 22.512 10.2297 37.733
517 1 27.0106 9.91285 38.0107
518 1 30.2699 12.5303 39.8981
522 1 6.32252 17.7943 38.409
524 1 10.7738 17.0208 39.1873
527 1 18.2211 14.3488 36.7225
526 1 15.3974 16.7972 39.6901
529 1 22.7333 14.934 37.0822
531 1 27.3171 14.5889 38.2183
6082 1 33.0283 14.7559 36.9529
520 1 1.90481 17.147 37.8806
539 1 13.4543 19.4073 36.4517
541 1 18.0474 19.0048 36.698
543 1 22.2971 19.2096 37.4318
545 1 27.3521 19.2315 37.9185
532 1 30.9323 17.2875 39.7127
6095 1 33.1101 20.1105 36.8879
534 1 2.35858 21.5949 38.1094
536 1 6.175 21.8002 38.7229
538 1 11.1956 21.5765 39.2765
553 1 12.4749 23.9947 36.0928
540 1 15.6177 21.3456 40.0257
557 1 22.9126 24.029 37.6459
542 1 20.2169 21.4736 39.7523
559 1 27.0111 23.5053 38.606
6108 1 33.142 24.1186 37.3103
546 1 30.1943 21.5843 39.9192
548 1 1.43681 26.1984 37.542
550 1 6.61508 26.3616 38.8617
552 1 11.7364 26.4175 39.2373
554 1 15.546 25.9041 40.1121
1829 1 18.899 28.2015 31.203
1833 1 27.7323 27.8971 32.1501
2043 1 29.0229 28.2748 47.5634
500 1 20.3777 7.97294 40.5451
502 1 25.1492 8.08789 41.1345
639 1 17.2377 5.67541 49.1662
577 1 3.489 9.91018 41.76
579 1 8.128 10.1977 41.5803
581 1 13.0959 10.8286 42.5173
583 1 17.6424 10.6255 43.4409
514 1 20.1218 12.7251 40.3419
516 1 24.7816 12.5601 40.789
587 1 27.8205 10.3752 42.5757
591 1 4.09402 14.3742 40.8112
593 1 8.51448 14.8628 41.4412
595 1 13.223 14.8721 42.5465
597 1 17.8745 15.2882 43.4252
530 1 24.6737 17.328 40.8742
601 1 28.2951 14.9737 42.9612
2037 1 12.4814 28.5802 49.2768
605 1 4.10779 18.9953 41.4252
607 1 8.41922 19.5057 42.5453
609 1 13.1982 19.4574 42.3936
611 1 17.7097 19.2006 42.9861
528 1 20.0842 16.9308 40.4515
613 1 21.9349 19.754 43.7934
615 1 27.9232 19.4787 42.6287
619 1 4.10735 24.5167 41.1421
621 1 8.23657 23.4929 41.9154
623 1 12.9762 23.7813 42.7913
625 1 17.6603 23.9559 42.9528
544 1 24.0763 21.7177 41.0315
629 1 27.5901 23.9477 42.8876
618 1 1.5233 26.7858 44.4952
1759 1 18.8584 28.3855 24.8852
686 1 33.6161 21.2156 49.5218
697 1 23.5421 24.1394 48.0086
672 1 32.7165 16.4523 48.9126
695 1 17.1466 23.888 49.6931
556 1 20.2316 26.0275 40.5887
558 1 24.5692 25.8872 41.6325
560 1 30.7915 26.1636 40.1528
562 1 1.24058 8.08933 44.6351
564 1 6.455 8.19862 44.8852
566 1 10.3482 8.02204 44.8027
568 1 14.9682 7.9545 45.8582
570 1 19.9752 8.4485 47.0971
572 1 25.3636 7.59793 45.6198
693 1 12.8156 24.0348 48.9236
574 1 32.2897 8.10693 44.086
576 1 1.6515 12.8217 44.4114
578 1 5.85521 13.0339 44.3505
580 1 10.1524 12.9539 45.3007
582 1 15.3672 12.6067 46.1477
584 1 19.9049 12.667 46.9977
585 1 21.9726 10.037 43.7076
586 1 25.734 13.2437 45.6107
657 1 28.5183 9.87468 47.1703
588 1 31.8883 12.8976 44.1557
661 1 3.91498 14.7857 47.6398
590 1 1.96042 16.6805 43.8983
594 1 10.7545 17.4135 45.7141
596 1 14.7823 17.1743 46.0665
598 1 19.5007 17.1502 46.515
599 1 22.3183 14.6633 43.8985
600 1 25.755 17.4571 44.9643
671 1 29.4226 15.2559 46.7988
604 1 1.96248 21.7193 44.1884
592 1 6.49286 17.0332 44.9488
602 1 31.9111 17.55 44.3734
606 1 5.91412 21.9277 44.6883
608 1 10.9139 22.2366 45.421
610 1 15.3156 21.7478 45.9234
627 1 21.8557 24.1187 43.2497
612 1 19.8213 21.6443 46.5272
614 1 25.4384 21.9351 45.703
699 1 29.2308 23.6459 47.2735
616 1 31.5684 21.5815 43.8384
2041 1 23.4407 28.5744 48.9876
620 1 6.2097 25.9557 45.045
622 1 10.6994 26.5187 45.5537
624 1 15.686 26.2258 46.6027
626 1 20.1175 26.228 46.9784
628 1 25.7585 26.5408 46.1539
683 1 23.2458 19.2724 48.5074
630 1 31.9819 26.0961 44.2958
632 1 1.22601 7.83872 50.8531
684 1 26.9433 21.814 50.0376
635 1 7.89185 5.83449 48.6114
651 1 12.1552 10.4058 48.7061
691 1 7.79767 24.2551 48.264
642 1 26.9525 7.20499 49.8757
644 1 32.5461 7.79693 48.82
647 1 4.38105 10.662 47.5573
646 1 2.06856 12.6257 50.5354
649 1 8.46319 9.96922 48.5901
653 1 17.5315 10.0963 49.4668
655 1 24.144 10.158 48.5705
656 1 27.0627 12.2383 49.8559
658 1 32.7629 12.4218 48.7428
663 1 8.15588 15.5739 48.475
685 1 29.0229 19.7281 47.1293
665 1 12.5143 14.5526 49.067
667 1 17.0836 14.4999 49.7929
669 1 23.245 14.9568 48.2087
670 1 26.9374 16.5417 49.5621
660 1 1.38912 17.1557 50.1944
675 1 3.4335 19.6719 47.4193
677 1 7.99431 20.1118 48.4125
679 1 12.7255 19.2013 48.4731
681 1 17.3837 19.1732 49.0351
1969 1 17.4514 28.4883 43.743
1965 1 9.15659 28.0334 42.2788
5926 1 32.7457 6.04624 26.4138
1893 1 5.22248 27.8814 35.4103
1899 1 18.2352 27.9192 37.3051
1763 1 28.3694 28.0025 25.9364
1761 1 24.3296 28.1445 24.933
399 1 15.0066 19.0798 23.2696
654 1 20.933 12.318 51.1949
636 1 10.5499 8.36321 51.8046
638 1 14.7127 8.16698 51.8165
744 1 0.736646 21.4129 56.5702
634 1 5.77609 8.02442 51.3027
712 1 28.0738 7.52869 54.5212
714 1 33.7841 8.31697 53.1722
717 1 3.00453 10.1362 54.2953
1077 1 34.2205 10.2815 75.2518
650 1 10.3153 12.8863 51.9314
652 1 14.7115 12.8166 52.0883
1055 1 11.0698 6.21954 78.6121
725 1 25.0521 10.7312 52.6814
727 1 29.7954 10.2235 51.7945
726 1 28.0606 12.2758 54.8065
728 1 33.6926 12.9606 53.2513
731 1 3.2941 15.1964 54.0869
664 1 10.1647 17.6293 51.7434
666 1 14.6273 17.4903 52.288
737 1 18.4561 15.0922 53.9469
985 1 9.76827 5.83907 74.1824
739 1 24.3295 14.776 52.9113
741 1 29.9223 15.0134 51.6206
745 1 3.35437 19.5192 53.3172
747 1 7.94574 19.2348 54.5901
751 1 18.1826 19.3933 54.5951
753 1 24.6978 19.5673 52.3713
755 1 30.2774 19.4357 51.5886
759 1 2.55662 23.6826 53.8058
1067 1 4.35805 10.5091 78.9466
678 1 10.1904 21.8427 51.5437
680 1 14.6013 21.6804 52.1221
765 1 17.8155 23.6681 54.1742
682 1 20.797 21.7011 50.7089
767 1 24.8523 23.9061 52.5656
754 1 28.1023 21.6982 54.5243
769 1 30.4542 23.9931 52.2943
707 1 11.9423 6.15363 55.0036
2179 1 18.9691 28.1056 58.6946
692 1 10.0388 26.1891 51.7672
694 1 14.9021 26.225 52.4052
702 1 0.669016 8.12785 56.6516
696 1 20.5753 25.7729 51.1506
668 1 20.3957 17.0097 51.075
847 1 14.1923 6.03142 64.0932
756 1 34.1849 21.4998 53.4717
704 1 5.92203 7.48291 57.7354
708 1 16.0266 7.88083 56.4345
710 1 22.1325 8.1835 55.5918
690 1 6.0209 26.4601 50.9939
2247 1 14.2938 27.7374 63.9568
719 1 8.08157 10.3868 54.7081
718 1 5.14728 13.1829 57.3251
721 1 12.7616 10.6462 55.3028
722 1 16.6658 12.4584 57.1409
723 1 18.2476 10.4133 54.1809
724 1 22.0384 12.7983 54.9224
795 1 25.4192 10.206 57.1084
797 1 31.4536 10.5615 56.2314
758 1 0.458098 26.2668 56.9416
733 1 8.14743 14.9025 54.7857
735 1 11.9211 14.9033 55.3355
809 1 25.2244 14.684 57.3523
740 1 28.1155 17.279 54.4698
811 1 31.7408 14.8181 55.9875
732 1 5.37386 18.0075 57.1164
749 1 11.926 19.655 55.4508
736 1 15.5832 17.4315 56.9531
738 1 22.4005 17.6466 54.8453
823 1 25.6662 18.7459 56.9271
825 1 31.8729 19.575 55.9628
987 1 16.3091 5.82237 73.1439
761 1 7.69715 23.8645 54.2036
746 1 5.12829 21.7562 57.4658
763 1 12.2876 23.8003 55.2397
750 1 15.2393 21.7184 56.8126
752 1 22.4355 21.3635 55.2416
837 1 24.815 23.2755 57.0288
839 1 31.843 24.0874 56.7198
648 1 6.02818 12.6113 51.2372
760 1 4.93737 25.8881 57.4615
770 1 34.1373 26.3298 53.4733
762 1 9.67375 25.8851 58.2456
764 1 15.2408 25.9223 57.2918
766 1 21.8671 25.8474 55.5197
768 1 27.6018 26.2312 55.3157
742 1 33.8143 16.8569 53.3494
706 1 10.0792 8.26555 58.1646
780 1 22.9999 7.44249 59.9792
782 1 28.678 7.87689 59.2673
787 1 2.73509 9.93852 59.8115
789 1 7.23075 10.2409 60.4489
720 1 9.75242 12.4695 58.3514
791 1 13.8044 9.85513 59.7396
793 1 19.7763 10.1767 57.8281
792 1 17.1825 12.3096 61.1349
794 1 23.2085 12.5358 59.6311
865 1 25.9538 10.7181 61.9397
796 1 28.8721 12.3978 58.8843
867 1 32.6199 10.2085 60.5571
801 1 2.76919 14.1653 60.354
803 1 7.31368 14.4847 60.9238
734 1 9.98189 17.1446 58.3481
805 1 13.3657 14.4761 59.7831
807 1 19.7681 14.7346 58.3988
881 1 32.4674 14.8402 60.6622
815 1 2.29688 18.7933 59.3511
817 1 6.66474 19.0285 60.9502
819 1 13.3582 19.7058 59.9189
806 1 16.9904 17.1288 61.3195
821 1 19.3449 19.6487 58.5083
808 1 22.9382 17.2109 59.6004
893 1 26.6007 19.5757 61.4305
810 1 28.7603 17.1744 59.1754
895 1 32.2391 18.5375 60.3694
829 1 1.99358 23.71 60.3772
831 1 6.93406 23.6943 61.3497
748 1 9.57912 21.8258 58.1578
833 1 13.1866 23.5656 59.8033
820 1 16.5018 21.8159 61.4056
835 1 19.1096 23.5237 58.7331
822 1 23.293 21.3038 59.9505
824 1 29.1442 21.7118 59.2482
1115 1 23.9576 23.7888 76.5726
834 1 16.728 26.3173 61.4966
836 1 23.0964 25.683 60.0339
838 1 28.8575 26.6955 59.3433
909 1 32.4589 24.2802 60.9504
777 1 13.5539 5.80692 59.4094
774 1 4.48614 8.14179 63.39
2385 1 9.96359 28.5477 73.8476
776 1 10.4491 8.23602 62.5909
778 1 16.9816 8.25045 61.007
850 1 23.3803 8.04035 64.8462
852 1 29.9836 8.25566 63.641
788 1 4.21493 11.8556 63.7206
790 1 10.6899 12.312 62.736
861 1 14.581 9.94908 64.1234
863 1 20.4448 10.4284 62.5292
864 1 23.9689 12.6204 65.7327
866 1 29.843 12.4931 63.461
937 1 33.2903 9.93973 65.4594
802 1 4.52647 16.9979 63.5618
875 1 14.31 14.6022 63.9687
877 1 20.6114 14.6809 62.885
879 1 26.3268 14.8861 62.0565
951 1 33.4413 14.8264 65.3872
804 1 10.5343 17.1191 62.7149
889 1 14.2517 18.997 64.3943
891 1 20.6649 19.4085 62.9378
878 1 24.2633 17.4129 64.4041
880 1 30.0952 17.1651 63.7973
1033 1 33.5057 19.5792 64.9222
816 1 4.19391 21.5495 63.8632
818 1 10.1779 21.4055 62.8664
903 1 14.1395 23.355 64.3521
905 1 20.4226 24.0045 62.5132
907 1 26.5836 24.2193 61.3817
892 1 24.1596 21.9279 64.5187
894 1 30.0274 22.0229 63.3777
964 1 33.55 24.1613 65.4842
830 1 3.80995 26.2518 63.8736
832 1 10.8047 26.1799 62.693
1118 1 32.1156 25.5517 78.3983
906 1 23.8529 26.2586 64.694
908 1 30.3289 26.6273 63.7576
844 1 5.14505 7.41259 68.1142
846 1 11.1973 8.27686 67.253
779 1 19.4921 6.02347 57.4723
848 1 17.89 7.82778 66.0229
2457 1 17.1131 28.0172 77.4136
640 1 20.7075 8.14539 51.1707
922 1 30.855 7.87007 67.6195
857 1 1.75797 10.4593 66.3114
859 1 8.09691 10.0536 65.6093
858 1 5.12829 11.9353 68.4632
860 1 11.7319 12.7364 67.1943
931 1 15.0219 10.3446 68.7999
862 1 17.9642 12.4392 65.7799
933 1 21.3127 10.2267 67.5766
935 1 26.9627 10.3192 66.5254
936 1 30.9431 12.6083 68.5191
871 1 2.29758 14.6085 65.8035
873 1 7.78458 14.4516 65.4411
874 1 11.3762 17.4291 66.659
945 1 15.2765 15.0452 68.2741
947 1 21.2536 14.4338 67.7993
949 1 27.2364 14.7236 66.6925
885 1 2.65486 18.5246 66.8632
872 1 5.77955 16.2898 68.4943
887 1 7.22483 19.1971 65.4222
959 1 15.2873 19.1946 68.4786
876 1 17.9099 17.1622 65.9261
961 1 21.8169 19.1587 67.3794
963 1 27.4439 19.2653 66.1068
950 1 30.6592 17.2237 67.6125
899 1 1.81665 23.5756 66.0851
901 1 7.78775 23.7392 65.0422
888 1 11.3254 21.9698 66.8081
973 1 15.1179 23.8286 69.0381
890 1 17.8646 21.7263 65.7273
975 1 21.4723 24.0962 67.5818
962 1 24.4909 21.2735 69.3468
977 1 27.9028 23.9135 66.4084
1035 1 31.0373 21.5725 68.0878
900 1 5.70665 25.7014 67.7514
902 1 11.432 26.0226 67.1711
904 1 17.646 26.0945 66.0746
1116 1 27.2017 26.8239 78.0098
978 1 31.3681 26.3134 68.1515
968 1 1.0306 26.1091 73.8809
916 1 12.5818 8.3157 71.8619
918 1 18.702 7.9446 70.5643
1105 1 33.7463 19.4636 75.905
920 1 25.2319 8.01449 68.8689
1113 1 17.1876 23.8307 77.422
992 1 32.2265 7.95702 71.9559
927 1 2.84528 10.0717 70.7201
929 1 9.27569 10.4023 70.0485
930 1 12.3975 12.5947 71.0112
932 1 18.5716 12.631 70.7863
1003 1 22.5151 10.1724 72.1459
934 1 25.1409 11.969 69.8107
1005 1 28.5455 10.2744 70.8595
941 1 2.74011 14.6164 71.6569
943 1 8.89084 15.1362 70.1316
946 1 18.8186 17.2445 70.6563
1017 1 22.2345 15.0588 72.3007
948 1 25.0249 16.6768 69.0667
1019 1 28.6853 14.7038 70.9949
955 1 3.29019 19.3695 71.0649
957 1 9.54751 19.7585 69.4185
944 1 13.0531 17.0906 70.9715
1031 1 22.3875 19.0705 71.9458
1020 1 28.2552 19.4209 70.7453
969 1 3.3779 23.9009 70.5112
886 1 5.62671 21.0707 68.3019
971 1 8.95333 23.985 69.3456
958 1 12.8539 21.6552 71.4918
960 1 19.2767 22.0106 70.2994
1045 1 22.2727 24.0139 72.1132
1047 1 28.155 24.2631 70.8097
1038 1 1.66385 26.2851 78.1255
972 1 12.7796 25.7129 71.661
974 1 19.2284 26.017 70.3863
1042 1 13.8183 26.0177 76.3791
976 1 25.0368 26.2493 69.3681
914 1 6.3357 7.76464 72.557
2313 1 2.6763 28.1335 70.7362
988 1 20.0316 7.96383 75.2299
990 1 26.0413 8.36965 73.5008
1040 1 7.59964 26.092 77.0088
913 1 2.5718 5.34907 70.7736
997 1 3.60344 10.3595 75.1626
928 1 6.31506 12.5857 72.8188
999 1 9.57928 10.4295 73.8345
1001 1 16.4051 10.4878 73.2282
1002 1 19.7796 12.8008 74.6813
1004 1 26.8651 13.0106 74.1757
1075 1 30.3685 10.086 75.0565
773 1 2.21007 5.6744 59.9643
1006 1 32.3263 12.6423 72.6532
1011 1 3.43537 15.055 75.6268
942 1 6.57269 17.059 72.6229
1013 1 10.5472 14.4463 74.2986
1015 1 15.9992 15.2458 73.1013
1018 1 26.1104 17.2497 73.5123
1089 1 29.8379 15.5137 75.3733
1022 1 32.1776 17.2107 73.0088
1025 1 4.05787 19.2078 75.3028
1027 1 10.4667 19.1426 74.2979
1029 1 16.5704 19.4361 73.2435
1016 1 19.5424 17.5839 75.1513
1103 1 29.3567 20.1453 75.2872
781 1 25.5609 5.3199 56.8602
1102 1 27.1031 22.2737 77.6726
956 1 7.10306 21.6287 72.7002
1041 1 10.0462 23.8049 74.6209
1030 1 20.3713 21.6684 74.8042
1032 1 25.9327 21.5746 73.8298
1034 1 31.7992 21.8997 72.4544
1057 1 17.6832 6.20666 77.7551
970 1 7.09293 26.0889 72.6679
1117 1 29.8965 24.8723 75.2342
1043 1 16.2852 23.5777 73.6435
1044 1 20.2276 25.9152 74.777
1046 1 26.6755 26.3461 73.7835
1048 1 32.5721 26.3583 72.1703
982 1 1.33786 7.5016 78.3903
984 1 7.03995 8.48802 77.1122
986 1 13.6131 8.76263 75.7958
1083 1 10.9191 15.1602 78.8479
1060 1 27.5603 7.82086 77.9638
1062 1 32.1402 7.66141 78.4116
996 1 0.938682 12.3678 78.3672
998 1 7.04482 12.6149 77.1801
716 1 0.779761 12.5197 56.4071
1000 1 13.8613 12.4859 76.5122
1071 1 17.7114 9.86819 77.7427
2113 1 30.5781 28.1154 52.1471
1073 1 23.4252 9.95803 75.9283
1074 1 27.6627 12.2055 78.1259
1076 1 31.6392 12.3983 78.6114
1010 1 1.63724 17.0232 78.6482
1012 1 8.14376 17.2565 76.9865
2103 1 3.06344 28.1051 53.6265
1085 1 17.9358 14.6399 77.5583
1087 1 23.6992 14.4897 76.4434
2111 1 24.1322 28.2451 53.5991
1090 1 31.3588 16.6345 78.7212
1097 1 11.1301 19.1702 78.8135
1014 1 14.0705 17.0224 75.9163
1099 1 17.2646 19.0724 77.7521
1101 1 23.8239 19.0132 76.1914
1088 1 27.3068 16.9037 78.0683
1024 1 1.10289 21.3815 78.1948
1039 1 3.86624 23.8041 75.4152
1026 1 7.73335 21.9248 77.156
1111 1 10.6155 23.8468 79.1816
1028 1 13.8019 21.8391 76.037
1119 1 33.7637 24.2381 75.4881
2251 1 26.3698 28.1435 62.414
2245 1 7.67418 28.5635 65.4658
1069 1 10.9892 10.6561 78.332
2243 1 1.84521 28.2236 66.8534
851 1 26.1275 5.92879 61.6857
2105 1 7.35152 28.2352 54.9065
849 1 19.9282 5.88177 63.123
709 1 18.2567 5.82471 53.8297
2175 1 6.55104 28.1397 60.7286
2249 1 20.1708 28.2396 62.7452
2109 1 18.3409 28.1408 54.4996
843 1 1.86614 5.79684 66.4885
783 1 31.4453 5.61981 56.1262
711 1 24.8229 5.87607 52.3606
983 1 3.5234 5.77075 75.5839
991 1 28.1967 5.71767 70.9216
1058 1 21.647 7.66507 79.0508
1100 1 20.8905 21.3497 79.1327
1072 1 21.7274 12.1267 78.8174