ITEM: TIMESTEP
311000
ITEM: NUMBER OF ATOMS
16000
ITEM: BOX BOUNDS pp pp pp
2.8136398506041616e-01 1.0191863601494153e+02
5.8391488939864828e+00 9.6360851106009946e+01
-5.2488515313641670e+00 1.0744885153136170e+02
ITEM: ATOMS id type x y z
395 1 5.35982 18.8765 22.6093
365 1 1.72511 10.0102 21.8303
143 1 7.58185 6.23932 3.87508
6 1 14.9998 8.20898 -4.76099
8 1 19.5178 8.33943 -3.84857
10 1 23.8695 8.56542 -3.62641
12 1 28.5621 7.89315 -2.74732
14 1 32.5414 8.28721 -1.83959
85 1 3.7682 10.7112 -2.77196
87 1 7.73202 10.3854 -2.43478
294 1 30.7773 7.64669 22.7236
20 1 15.1569 12.7606 -4.73823
22 1 19.7456 12.2446 -4.25428
24 1 23.5729 12.6506 -3.3389
26 1 28.3384 12.7911 -3.1925
28 1 32.7725 12.1411 -2.62768
99 1 3.79756 15.2848 -2.81044
101 1 7.93844 15.055 -2.69423
103 1 12.6939 14.8643 -2.23197
36 1 19.8693 16.9154 -4.62252
40 1 28.5516 17.5262 -2.81894
113 1 3.46199 19.9387 -2.86039
115 1 8.02402 19.6956 -2.28611
1685 1 11.1348 27.8272 17.4293
117 1 12.5994 19.7789 -1.83124
34 1 14.5537 17.3246 -4.78409
38 1 24.3563 17.437 -3.61551
42 1 33.1064 17.4264 -2.08526
127 1 3.44809 23.8987 -3.17243
129 1 7.86954 24.1862 -2.71566
48 1 15.0112 21.925 -5.00043
131 1 12.3527 24.163 -1.64095
50 1 19.6783 21.6966 -4.37418
52 1 24.127 22.3003 -3.78963
54 1 28.7334 21.995 -3.22332
77 1 17.4149 5.92338 -1.58606
5731 1 33.8288 6.00459 7.45079
62 1 14.4831 26.3877 -4.08371
64 1 19.2599 26.2903 -3.93583
66 1 23.5582 25.9645 -4.01347
68 1 28.761 26.5414 -2.83892
70 1 32.469 26.6599 -2.32453
10878 1 0.533424 8.42333 -0.0713685
72 1 5.03927 7.74611 0.277042
74 1 9.50331 8.28228 1.07712
320 1 26.3344 16.9824 22.0482
10891 1 0.824462 13.0753 -0.0991671
86 1 5.48606 13.3353 0.685849
88 1 9.90074 12.9279 0.662159
89 1 12.3752 10.0905 -1.95997
91 1 16.7537 10.5276 -1.02859
93 1 21.3602 10.0854 -0.265723
95 1 25.8777 10.8083 0.0529834
97 1 30.1235 10.676 0.885073
104 1 14.6626 16.9226 1.13711
105 1 17.4447 15.0101 -1.97877
107 1 21.4495 15.1151 -0.951506
109 1 25.6802 15.3524 0.241438
111 1 30.2384 14.8022 0.490784
292 1 26.0699 7.8713 22.4351
100 1 5.03824 17.2771 0.537318
102 1 9.88385 17.0238 0.743456
119 1 17.2699 19.7069 -1.52137
121 1 21.2926 19.1136 -0.638857
123 1 25.9823 19.8907 -0.0352996
125 1 30.4427 19.5189 0.865849
10917 1 0.418408 21.5938 -0.38973
114 1 5.1854 21.7277 0.25408
116 1 9.22503 21.6251 0.867042
118 1 14.9781 21.9213 1.57651
133 1 17.1622 24.1704 -0.905371
135 1 21.6207 23.6908 -0.65928
137 1 26.0713 24.0494 -0.113402
56 1 33.0762 21.4217 -2.47144
139 1 30.8903 24.1087 0.657713
10930 1 0.62292 25.5666 -0.606435
128 1 5.17425 26.7537 0.00892822
130 1 9.68205 26.1598 1.2978
132 1 14.3104 26.3367 1.99401
1753 1 5.99764 28.3803 22.3656
76 1 13.9353 8.65933 2.08502
78 1 18.5044 7.91102 2.48757
80 1 23.8209 8.35676 3.41422
82 1 27.5864 8.90065 3.27498
84 1 31.7897 7.44673 4.49055
155 1 2.5743 10.4015 2.8059
157 1 7.18345 10.5464 3.21949
90 1 14.0923 12.4737 1.60755
159 1 11.8955 10.5382 4.24614
92 1 18.8604 12.4286 1.80545
161 1 16.4421 10.6746 5.15114
94 1 23.3275 12.4334 3.17819
96 1 27.4722 13.0315 3.63577
98 1 31.7661 12.2103 4.91649
169 1 2.99006 15.0867 3.18446
171 1 6.90986 15.0956 3.74297
173 1 11.2666 14.527 4.7307
175 1 15.9351 14.9703 5.08704
106 1 18.7672 16.9008 1.97485
183 1 2.27728 19.2736 3.54694
185 1 7.47961 19.3267 3.82476
187 1 12.0452 19.1569 3.77368
189 1 16.1948 18.6671 4.41566
108 1 23.5326 17.0254 2.78854
110 1 27.5885 17.4036 3.53552
112 1 32.2304 16.7546 3.98622
197 1 3.0606 23.8888 2.8606
199 1 6.95686 23.7875 2.98654
201 1 11.4621 23.6882 4.44606
203 1 15.95 23.9008 5.46949
120 1 18.9185 21.2066 2.09274
122 1 23.2916 21.7415 3.10398
124 1 27.8444 22.1894 3.58222
126 1 32.2461 21.1914 4.03371
75 1 12.7985 6.09244 -1.74739
134 1 18.9053 25.9413 2.5305
136 1 23.4219 25.7143 3.30165
138 1 27.8205 26.1809 3.51632
140 1 32.6584 25.9276 3.96901
285 1 10.4906 6.03422 16.7621
142 1 5.05365 7.70345 6.23413
144 1 9.62916 8.34117 7.14927
146 1 13.8095 8.77454 7.85484
148 1 18.4971 8.15404 8.65845
1613 1 6.81021 28.4206 9.94607
156 1 4.8383 12.1489 6.34754
158 1 9.46024 11.8598 6.78044
160 1 13.3961 12.7096 8.24881
162 1 18.4285 12.5963 8.3384
163 1 20.1952 9.90693 5.50269
165 1 25.4863 10.51 6.89775
167 1 30.0041 9.77051 7.02549
174 1 14.0956 17.0597 7.60166
177 1 20.4245 14.3752 4.78204
179 1 25.5629 14.7461 6.60332
181 1 29.3606 14.4506 7.70268
170 1 5.61865 17.0303 6.87215
172 1 9.4911 17.1305 7.07829
176 1 18.7486 17.2692 8.17439
191 1 20.7316 19.1133 5.78888
193 1 25.5448 19.2241 6.35848
195 1 29.7177 19.1415 7.20697
145 1 11.6039 6.16221 4.60804
184 1 4.96759 21.5343 6.54243
186 1 9.30285 21.4945 7.65533
188 1 13.982 21.3947 7.57619
190 1 18.5666 21.4987 8.40172
205 1 20.7733 23.8241 5.62967
207 1 25.3226 23.852 6.92008
209 1 29.9017 23.5082 6.84252
344 1 17.9857 25.5938 20.9865
198 1 5.00235 26.3371 6.19578
200 1 9.47782 26.1498 7.85069
202 1 14.0075 26.0334 7.90217
342 1 12.6729 25.8661 20.4188
204 1 18.9071 25.8436 8.51309
10969 1 0.478666 16.7791 6.29777
5913 1 33.0103 24.0527 20.4116
411 1 9.41272 23.5083 22.4501
10995 1 0.892732 25.9428 5.31707
1619 1 20.592 28.1343 11.8986
349 1 28.5533 23.3571 19.7921
10904 1 0.545322 17.0215 -0.166433
1681 1 1.85344 28.1727 15.585
150 1 23.183 7.37411 9.70361
152 1 26.643 8.35003 9.99584
154 1 31.5017 8.00111 11.0975
225 1 2.67613 10.2035 9.4079
227 1 7.20534 10.4447 10.6856
229 1 11.6543 10.3545 10.8184
231 1 16.1843 10.7209 11.2794
233 1 20.1957 10.0398 12.0087
164 1 22.8687 12.1161 9.26389
166 1 26.9102 12.027 10.4007
168 1 31.562 12.2894 10.7379
239 1 2.75883 14.2906 9.46184
241 1 6.89718 14.4992 9.83568
243 1 11.4592 15.0496 10.7701
245 1 16.0176 15.7901 10.7143
178 1 23.0695 17.0699 8.79282
180 1 27.1181 16.6589 10.0264
253 1 2.10503 19.0886 9.03641
255 1 6.9385 19.2941 10.2599
257 1 11.4823 18.8837 10.5261
259 1 15.8323 19.4704 11.3959
261 1 20.4182 19.3857 12.0117
182 1 31.9129 17.1587 10.7968
267 1 2.13036 23.6349 9.10447
269 1 6.68288 23.7948 9.90418
271 1 11.6451 23.5969 11.1317
273 1 16.0507 23.5468 11.3914
275 1 20.5878 23.9695 11.8981
192 1 23.3023 21.3532 9.04187
194 1 27.1419 21.8834 9.96003
196 1 31.6394 21.5432 10.9029
206 1 22.8416 26.1546 9.01753
208 1 28.0488 26.441 10.0313
210 1 31.986 26.2348 9.76484
212 1 5.01372 8.19866 12.4587
217 1 15.9228 5.87187 11.2647
214 1 8.90284 7.59201 13.5689
216 1 13.446 8.27661 14.008
218 1 17.928 7.88879 14.5888
220 1 21.7037 7.72682 15.4366
147 1 16.2311 6.09229 4.96377
295 1 1.31989 10.7649 15.8128
226 1 4.61342 12.139 13.0809
228 1 9.24494 12.9134 13.3632
230 1 13.3827 12.7861 14.1063
232 1 17.9772 12.1716 14.5114
234 1 21.7732 12.3817 15.6888
235 1 24.909 10.1814 12.9298
237 1 29.2835 10.1363 13.5871
83 1 29.7889 5.95328 0.364008
309 1 2.05606 14.6168 15.9845
244 1 13.4263 16.6587 14.3186
246 1 18.089 16.8721 15.1976
247 1 20.2998 15.5026 12.1089
248 1 22.3084 16.9652 16.2404
249 1 24.5042 14.9583 12.7535
251 1 28.8916 15.0264 13.6187
5822 1 33.6169 14.4088 14.1621
323 1 1.39673 19.2005 15.0154
240 1 4.44676 16.8391 12.443
242 1 8.62411 16.6637 13.5832
263 1 24.4781 18.8832 12.5229
265 1 29.0266 19.4735 13.5528
5835 1 33.997 19.0518 13.8756
337 1 1.78886 23.7511 15.4714
254 1 4.26827 21.5679 12.3972
256 1 9.14442 21.3011 13.1986
258 1 13.6649 20.89 14.2279
260 1 18.2978 21.1858 14.7606
262 1 22.786 21.211 15.6879
277 1 24.9162 24.1481 12.6193
279 1 29.6365 24.0818 12.8919
5848 1 33.9776 23.5279 14.5924
268 1 4.18629 26.221 12.4612
270 1 8.73736 25.9445 13.7119
272 1 13.1149 26.2734 14.6201
274 1 17.9575 25.9164 14.9627
276 1 22.5697 25.9966 15.6797
332 1 21.7849 21.6473 21.7166
282 1 3.96453 8.12811 18.8031
215 1 11.2382 5.87301 10.7399
284 1 8.55976 7.99663 19.5468
10943 1 0.381124 8.16434 5.84567
322 1 30.8871 16.6251 22.5744
330 1 17.0256 21.8055 21.2488
222 1 26.3815 8.20432 15.9551
224 1 30.9792 8.01706 17.35
296 1 3.53916 12.4256 19.7243
297 1 6.08166 10.4418 16.1308
299 1 10.6597 10.3214 17.0966
301 1 15.2181 10.009 17.6937
303 1 19.9698 9.98598 18.3106
305 1 23.8598 10.0683 18.9704
236 1 26.6397 12.8379 16.4652
238 1 31.1012 12.7295 17.1976
311 1 6.234 15.2553 16.3884
313 1 10.8914 14.9563 17.1347
315 1 15.3817 14.4741 17.6509
317 1 19.5711 14.4833 19.1881
319 1 24.6281 14.6543 19.3138
250 1 26.7488 17.5832 16.1938
252 1 30.9101 17.5706 17.3505
310 1 3.47841 16.9414 18.7842
325 1 5.53669 19.2875 16.3055
327 1 11.0895 19.2247 16.8135
312 1 8.03614 17.1423 19.4604
329 1 15.5039 18.7739 17.8625
331 1 20.0057 19.0983 18.6185
333 1 24.2283 19.5138 19.71
324 1 3.75973 21.2816 18.9338
339 1 6.29263 23.7985 15.9207
341 1 10.8303 23.7969 16.6117
343 1 15.4019 23.3014 17.6667
345 1 20.0191 23.4162 18.4534
347 1 24.0776 23.3078 19.1408
264 1 27.0922 21.5569 15.9134
266 1 31.4682 21.4007 17.0845
338 1 3.2939 26.5849 19.0848
340 1 8.04846 26.0857 19.5328
308 1 30.6994 12.5067 22.9395
328 1 12.253 21.8722 20.6157
5809 1 33.9559 10.1592 14.2098
278 1 27.0646 25.7765 16.4115
280 1 30.8962 26.257 16.812
81 1 26.1011 6.39812 -0.100987
346 1 22.3988 25.7408 22.6931
286 1 13.1157 8.14126 20.4935
288 1 17.1564 7.8396 20.903
290 1 21.0898 7.91433 22.0815
1611 1 2.10081 27.9564 8.96452
326 1 7.74081 21.436 19.3903
367 1 5.88749 10.3015 22.3513
298 1 8.72108 12.5735 19.4368
300 1 12.5437 12.6442 20.6368
302 1 17.0365 12.4944 20.9965
304 1 21.7704 12.4753 21.9858
306 1 25.8511 12.5207 22.5385
307 1 28.3757 10.4983 19.4985
5874 1 32.9702 9.90225 20.3188
379 1 1.33545 14.8265 21.9031
381 1 5.9388 14.9553 22.3802
314 1 12.6131 17.2347 20.3888
316 1 17.1575 17.2504 20.9224
321 1 28.8255 14.6683 20.1852
5887 1 33.5627 14.6385 19.9181
393 1 0.794229 19.2621 21.8273
281 1 1.82592 6.22669 15.5922
318 1 21.6247 17.1742 22.5672
335 1 28.8591 19.5422 19.9829
5900 1 33.1294 19.4714 20.2544
407 1 0.730589 24.1657 22.2183
409 1 5.4124 23.8478 22.2854
79 1 21.5092 6.02281 -1.28529
1623 1 29.5209 28.3646 13.3501
1617 1 15.9976 28.1962 11.5348
1481 1 25.675 28.04 -0.167074
1693 1 28.1899 28.4818 19.9645
1687 1 15.8206 28.1337 17.8044
1615 1 11.4538 28.211 10.6009
1551 1 26.0638 28.4162 6.29891
7161 1 32.9507 28.0675 19.5541
153 1 29.0847 6.11108 6.89446
1483 1 30.0185 28.2498 0.887926
291 1 24.2771 6.17771 19.0778
1691 1 24.1938 28.0629 19.5561
1477 1 16.657 28.4732 -0.754733
1621 1 24.8565 28.5244 12.6156
1683 1 6.34878 27.7287 16.5296
1479 1 21.4756 28.3179 -0.592656
1755 1 10.7201 28.5142 22.4587
1689 1 19.5371 28.2377 18.3112
7096 1 33.5567 28.0456 13.3888
1545 1 11.925 28.1114 4.5306
46 1 10.2874 21.5753 -5.04828
32 1 10.2414 17.359 -5.25286
352 1 2.79379 8.35565 25.3243
354 1 7.12106 7.33124 25.8934
563 1 3.58855 5.88372 41.0927
5991 1 32.6199 5.82726 32.5308
366 1 3.25849 12.2481 25.4939
368 1 7.19158 12.4105 26.3066
449 1 0.484117 15.1871 27.9988
371 1 14.8432 9.88699 23.8545
370 1 12.0141 12.6395 26.4978
373 1 19.2463 10.4918 24.387
375 1 23.2572 9.91271 25.0259
377 1 28.4177 11.0291 26.0471
497 1 13.2372 5.95901 36.3822
382 1 7.80934 17.1133 26.239
493 1 3.83995 6.18848 35.2942
385 1 14.6215 14.6859 24.0169
387 1 19.0826 14.4255 24.5785
389 1 23.6998 14.5905 25.686
391 1 28.1672 14.9034 26.0084
643 1 28.8246 5.75076 47.3636
380 1 3.18663 17.0462 25.3742
435 1 0.680223 10.3636 28.1237
399 1 14.7569 19.5738 23.8572
401 1 19.0109 19.2882 24.6372
691 1 7.58717 24.1997 48.5055
403 1 23.666 18.9362 25.249
394 1 2.7618 20.7841 24.8631
396 1 7.39811 21.6027 25.9691
363 1 28.3394 6.42356 25.504
413 1 14.7911 23.9677 23.8262
398 1 12.2757 21.6445 26.3537
415 1 19.2287 23.552 25.0049
417 1 23.8701 23.3796 25.5009
419 1 28.5439 23.6197 26.1767
336 1 30.5072 22.0999 22.9031
408 1 3.09042 26.2153 25.5584
410 1 7.73253 26.3753 25.4564
397 1 9.80026 19.7141 22.8631
688 1 0.508053 26.7218 51.0638
423 1 5.1688 6.18525 29.0231
642 1 26.5018 8.49179 50.2998
7226 1 32.1653 28.2157 26.8195
1891 1 0.600567 28.5068 35.1115
356 1 11.7106 8.08845 26.785
358 1 16.6472 8.35945 27.3019
360 1 21.0099 7.7812 28.068
362 1 25.7964 8.31697 28.8118
364 1 30.2727 8.05965 29.1263
6173 1 34.1389 23.5717 41.3075
6147 1 34.0481 14.9235 41.5971
437 1 4.91957 10.0022 29.139
439 1 9.38491 10.5093 29.8896
372 1 16.1091 12.9651 27.3782
374 1 20.7993 12.2896 27.4831
376 1 25.8995 12.4755 29.1279
378 1 30.2074 12.422 29.1576
5939 1 32.7539 10.0562 25.6181
383 1 9.79513 15.1256 23.4307
451 1 4.86185 15.1819 28.5251
453 1 9.41523 14.464 29.6194
384 1 11.9336 17.223 26.5948
455 1 14.0644 14.8405 29.9163
386 1 16.5367 17.2457 27.4553
392 1 30.5004 16.9653 28.713
5952 1 33.112 14.5813 26.0974
672 1 32.8042 16.7908 48.8029
465 1 5.40522 19.6246 28.5758
467 1 9.50937 19.2269 29.2276
469 1 13.9539 18.9022 29.817
388 1 21.1022 16.7491 28.3071
390 1 26.2193 17.1776 28.8404
405 1 28.3975 18.8887 25.7064
5965 1 33.6177 19.297 26.6542
2033 1 3.17715 28.3047 47.6546
479 1 5.16322 23.667 28.5132
481 1 9.67836 23.8252 29.1106
400 1 16.4088 21.761 27.6682
402 1 21.1544 21.3529 28.3651
404 1 25.706 21.0189 28.9792
406 1 30.5382 21.2378 29.2189
5978 1 32.5956 23.4696 26.4686
1821 1 0.705585 27.8317 28.5137
477 1 0.611002 23.2517 27.9593
700 1 33.4209 26.1315 48.4467
412 1 12.4645 26.0041 26.0371
414 1 16.7666 26.4227 27.4377
416 1 21.2522 26.1371 28.1202
418 1 25.772 25.8358 28.9623
420 1 30.3579 25.9759 29.4768
1899 1 18.1247 27.9111 37.069
422 1 2.15504 8.47308 31.6144
424 1 7.45899 8.31681 32.7429
426 1 11.4512 8.08185 33.2559
683 1 22.9218 19.5542 48.5036
698 1 26.2693 25.7872 49.9179
436 1 2.10167 12.9964 31.7558
438 1 6.39286 12.8996 32.4368
441 1 13.6455 10.4569 30.1954
440 1 11.7736 12.8303 33.4307
443 1 17.9892 10.3422 30.7073
445 1 22.5128 10.1105 31.5678
447 1 27.5254 10.2566 32.1231
6004 1 32.0989 10.4506 32.7266
454 1 10.7892 16.6864 32.7898
457 1 18.5417 15.1579 31.1858
456 1 15.3697 17.2338 33.712
459 1 22.9681 14.6818 31.3594
461 1 27.8997 14.4154 32.0832
6017 1 32.48 15.0544 32.4622
450 1 2.50529 17.6621 31.4221
452 1 6.92782 16.8437 32.6507
471 1 18.3254 19.3175 30.8438
473 1 23.0154 18.9818 31.7335
475 1 27.9265 19.1373 31.899
6030 1 32.4382 19.4373 32.1706
464 1 2.5052 21.4929 31.354
466 1 7.04644 21.5311 32.3608
468 1 11.3579 21.0818 33.091
483 1 14.0985 23.5596 30.3569
485 1 18.2543 24.0357 31.0494
487 1 23.1516 23.8034 31.7994
489 1 27.6694 23.5208 32.3707
6043 1 32.3781 24.0849 33.2454
478 1 2.47298 25.4226 31.915
480 1 7.02632 25.604 32.4629
482 1 11.9738 26.1261 33.4726
1831 1 22.8637 28.3862 31.46
1761 1 23.9304 28.1772 25.6122
1825 1 10.0317 28.0282 29.5609
2043 1 29.3921 28.3623 47.4929
428 1 15.9427 8.0806 33.0685
430 1 20.4989 7.31877 33.7759
432 1 24.7388 7.78753 34.9627
434 1 29.2958 8.05606 35.0188
670 1 26.7907 17.3284 50.2481
507 1 4.13739 10.4298 34.9308
509 1 9.17598 11.2143 35.9855
511 1 13.5428 10.6488 36.8101
442 1 16.0919 12.7622 34.3401
444 1 20.3864 12.1114 34.3565
446 1 24.8728 12.5267 35.0284
448 1 29.4146 12.7926 35.4865
6069 1 33.0694 10.2685 37.0516
521 1 4.04416 15.7086 35.2195
523 1 8.56099 14.8611 36.3475
525 1 13.4641 15.0229 36.3772
527 1 17.9018 14.6474 36.9753
458 1 20.0626 16.831 34.2293
535 1 4.38994 19.9071 34.925
537 1 9.08979 19.5774 35.9004
539 1 13.7373 19.3822 36.425
460 1 25.2496 17.3973 34.3648
462 1 29.8376 16.7937 35.5922
549 1 4.55606 24.4035 36.0878
551 1 9.18636 24.2474 35.5326
553 1 13.5303 23.8776 36.8381
470 1 15.5893 21.7632 33.8794
555 1 18.3256 23.9179 36.8662
472 1 20.1159 21.0509 33.9073
474 1 25.4073 21.2524 34.6596
476 1 30.2856 21.3504 35.3336
1895 1 9.09105 28.0684 35.4696
6160 1 33.9923 18.9619 41.6911
463 1 0.53938 19.1349 27.5297
484 1 16.0226 26.4346 33.7818
486 1 20.5668 26.3554 34.435
488 1 25.1915 25.9654 34.5793
490 1 29.7205 26.0084 35.5669
492 1 1.77753 8.20149 37.9422
494 1 6.56014 8.17405 38.5447
496 1 10.2543 8.14566 39.3221
498 1 14.674 7.82253 39.4127
500 1 19.8979 8.05275 40.3624
504 1 30.7513 7.78537 39.5261
1969 1 17.9242 28.0771 43.0136
506 1 2.1445 12.8783 38.0936
508 1 5.87063 12.7624 38.1672
510 1 11.2325 12.6013 39.6098
512 1 15.1138 12.5052 40.0911
513 1 17.6384 9.97903 36.7245
515 1 22.2076 10.1387 37.4314
517 1 26.3541 10.1864 38.0749
518 1 30.578 12.3585 40.0079
520 1 1.45867 16.7308 38.1658
522 1 6.15003 16.9419 38.6009
526 1 15.3631 17.1301 40.1615
529 1 22.69 14.6626 37.3555
531 1 26.8103 15.2641 38.1499
6082 1 33.3564 14.5702 37.1412
524 1 10.9484 17.3362 39.6557
541 1 18.0783 19.2602 36.9305
543 1 22.7887 19.0117 37.348
545 1 27.2634 19.5979 38.1433
6095 1 33.6272 18.5965 37.6566
532 1 30.5644 16.9024 40.1583
534 1 2.3315 21.3381 38.0332
536 1 6.36922 21.4633 39.1323
538 1 11.1511 22.051 39.3267
540 1 15.6662 21.7359 40.1753
557 1 22.4653 23.3766 37.6501
559 1 27.295 23.5343 38.154
546 1 31.0178 21.8414 39.9448
348 1 26.108 26.1269 23.4556
548 1 1.78676 26.0502 38.4598
550 1 6.51589 26.1708 38.9882
552 1 11.0155 26.5494 40.1927
554 1 15.1025 26.2038 39.5573
556 1 20.4326 25.6883 40.8307
634 1 5.4782 7.82598 50.776
560 1 30.4418 26.2865 40.2173
1901 1 22.7768 27.6887 37.4924
1823 1 5.47873 27.9751 28.7757
2035 1 7.3004 28.2732 48.0209
1965 1 8.09981 28.269 41.9133
502 1 24.5576 7.74456 40.7161
632 1 0.61942 7.65324 50.6451
577 1 3.86454 10.597 41.6288
579 1 7.84643 10.4174 41.9267
581 1 12.8133 9.6481 42.7302
583 1 16.8372 10.102 42.6865
514 1 20.0377 12.0508 40.3522
585 1 22.1983 10.0823 44.0624
516 1 24.6032 12.6167 41.0804
587 1 27.9157 10.3094 42.3021
591 1 3.61543 14.5103 41.7761
593 1 8.19622 14.5474 42.0954
595 1 12.8031 14.3938 42.7621
597 1 16.9185 14.4061 42.9168
528 1 19.8816 16.6778 40.2446
599 1 21.6329 14.7205 43.5407
530 1 24.8244 16.836 41.1754
601 1 28.0138 14.8589 42.773
369 1 10.1084 10.403 23.542
605 1 3.58171 19.0314 41.9118
607 1 8.44094 19.3192 42.1642
609 1 13.5255 19.7855 42.636
611 1 18.1145 18.7919 43.0969
613 1 21.8177 18.6581 44.0556
615 1 28.1365 19.5448 42.8167
604 1 1.22217 21.241 44.0346
619 1 3.85594 23.9591 41.1174
621 1 8.40469 23.685 42.7417
623 1 12.9396 23.7802 43.3694
625 1 17.3528 23.4803 43.2815
542 1 20.3456 21.2543 40.4126
627 1 21.9045 22.9692 43.7122
544 1 24.7809 21.2279 40.9948
629 1 27.7099 23.8375 42.9131
693 1 12.2563 23.2649 48.9903
5926 1 32.7896 5.98291 26.2462
674 1 0.618298 22.1227 50.9862
558 1 24.1479 25.2724 41.292
562 1 1.55641 8.08016 44.7076
564 1 5.78914 7.81583 44.6463
566 1 10.18 8.33168 45.4958
568 1 14.962 7.83213 45.7332
570 1 19.4257 8.0352 45.9759
572 1 25.4501 7.90744 45.6688
686 1 32.5823 22.0088 49.1387
574 1 31.689 8.48415 44.5766
576 1 1.16919 12.8901 44.4457
647 1 3.04302 10.191 47.6579
578 1 5.66853 12.319 45.511
580 1 10.0778 12.4796 45.1154
582 1 14.8079 12.2754 46.2864
584 1 19.5658 12.5671 47.1162
586 1 25.318 12.2151 45.5197
588 1 31.8867 12.2972 43.6425
661 1 2.81878 14.8607 48.3637
594 1 11.1582 17.1041 44.8382
596 1 15.0032 17.2027 45.8493
600 1 25.7118 16.8504 45.8823
590 1 1.32212 16.8689 44.4654
675 1 3.11694 19.3786 48.0586
592 1 5.84731 16.9715 45.3094
598 1 19.5898 16.9835 47.093
685 1 29.4968 19.3419 47.1249
602 1 31.8164 16.9358 44.1373
689 1 3.15777 23.4129 47.3709
606 1 5.71582 21.8556 45.0138
608 1 10.0955 21.6601 45.4535
610 1 14.7262 21.2064 45.987
612 1 18.8615 21.5541 46.7655
614 1 25.3583 20.9924 45.6344
616 1 31.5146 21.4191 44.6811
618 1 1.26789 26.0045 44.0436
684 1 26.7687 22.1653 49.149
620 1 5.50783 25.4993 44.7632
622 1 9.94695 26.521 45.1665
624 1 15.2053 25.6078 46.0362
626 1 19.2861 26.0255 46.4006
628 1 25.3635 25.8232 45.1445
630 1 31.5101 25.9825 44.5171
695 1 16.7322 23.9794 49.9755
699 1 29.4908 23.919 47.1895
681 1 16.7091 19.2552 49.7443
697 1 22.7155 24.0061 48.5525
644 1 32.7342 8.42669 49.1295
1973 1 27.9084 28.0853 42.4335
679 1 11.9938 19.1555 48.9206
649 1 7.62059 10.2724 48.1264
651 1 12.2649 10.6145 48.7117
653 1 16.7927 9.73137 49.6703
655 1 22.5394 10.1127 48.3732
657 1 29.1149 10.1955 46.9709
656 1 26.231 12.5632 49.9829
658 1 32.9206 12.1658 48.2079
677 1 7.26331 19.3436 48.5186
663 1 7.72359 14.8724 48.9551
665 1 11.6282 14.35 48.9397
667 1 16.0818 14.3601 49.5866
669 1 22.7533 14.85 48.2341
671 1 29.1915 14.6494 47.365
1757 1 15.1523 27.8417 23.7184
1759 1 19.7072 28.2437 24.1863
660 1 1.15019 17.4928 50.8426
1903 1 27.5009 28.1921 38.239
565 1 8.13828 5.91516 42.1767
1827 1 14.268 28.2174 29.9913
1833 1 27.6109 28.2614 32.55
2037 1 12.1825 28.1172 48.5716
1763 1 28.3257 28.1989 25.8653
357 1 14.6804 6.05258 23.7784
696 1 20.6887 25.9846 50.9272
637 1 12.1664 5.90543 48.9167
2041 1 22.624 28.217 48.3841
1897 1 13.5182 28.2664 36.6679
431 1 23.2297 6.01811 30.9532
690 1 4.83318 25.5763 51.0725
350 1 30.7044 25.9118 22.8933
334 1 26.357 21.7984 23.1527
702 1 0.551326 7.819 56.7612
636 1 9.68679 7.69686 51.4669
638 1 14.2578 8.34932 52.2467
654 1 20.1741 12.911 51.4082
1040 1 6.92424 26.4853 77.3899
676 1 5.17856 21.5567 51.7133
717 1 2.72521 10.2894 53.7256
650 1 9.54523 12.6636 51.756
652 1 14.1053 12.3816 52.4212
723 1 17.4485 10.3113 54.2189
845 1 7.54591 5.82782 64.8606
725 1 24.1531 10.2632 52.8071
727 1 30.2114 10.7054 51.4305
726 1 27.8551 12.2959 54.3904
1118 1 31.1821 26.2973 78.8294
731 1 2.38872 14.8935 54.6762
733 1 6.72401 14.739 54.7303
666 1 13.4232 17.2663 52.0322
737 1 17.0957 15.0164 54.0762
739 1 24.1926 14.979 52.6771
741 1 29.9609 14.8375 51.7896
682 1 20.0431 21.9165 51.2927
745 1 3.07662 19.7577 54.4767
747 1 7.5366 19.2353 54.9579
664 1 9.57882 17.307 51.5136
751 1 17.487 19.2611 54.2585
668 1 20.1007 16.9865 51.1943
753 1 23.7023 19.6387 53.0036
755 1 30.5594 19.4638 51.8587
740 1 27.4745 17.1007 54.6309
759 1 2.2729 23.8465 53.9852
678 1 9.67966 21.5225 51.8155
680 1 14.3357 21.0007 52.722
765 1 17.4665 23.8921 54.7008
767 1 23.8636 23.3332 52.6917
2245 1 8.12113 27.6365 65.1227
853 1 32.4839 5.98181 60.2868
692 1 10.2746 25.1883 51.7977
694 1 14.2141 26.0993 52.1368
640 1 20.4763 8.12376 51.2801
951 1 33.3957 14.8759 64.8249
769 1 30.3518 23.9828 51.3996
768 1 27.7316 25.5488 54.5685
2461 1 29.5447 28.2447 75.3037
704 1 4.77482 8.66087 57.6192
728 1 33.7842 12.7227 53.6842
706 1 9.17272 8.05911 58.5398
708 1 14.6813 7.63195 56.4674
710 1 21.0779 8.24116 55.9154
712 1 27.8251 8.53366 54.7456
648 1 4.93335 12.4186 51.5757
719 1 7.22522 9.86477 54.6852
718 1 4.57557 12.6464 57.2267
721 1 11.741 10.6062 55.3271
722 1 15.1229 13.117 57.0923
724 1 21.0534 12.8728 55.5285
795 1 24.9893 10.5596 57.5224
797 1 31.3196 10.182 56.0647
735 1 11.4096 15.2336 54.9411
738 1 21.4183 17.3018 55.7052
809 1 25.1587 15.0572 57.0394
811 1 31.0179 14.9018 56.3209
732 1 4.79024 17.4839 57.763
734 1 9.16188 17.029 58.6179
749 1 11.6169 19.7114 55.6976
736 1 15.0498 17.064 57.5362
823 1 25.2597 19.5264 57.471
825 1 30.88 19.5185 56.108
1116 1 26.7167 26.5557 77.7631
761 1 6.91978 23.8648 54.9151
746 1 4.6433 21.3871 57.8114
748 1 9.33569 21.6898 58.2091
763 1 11.8714 24.4835 55.3634
750 1 14.8533 21.6075 57.3451
752 1 21.4668 21.4818 55.657
837 1 24.7607 23.7284 56.7635
754 1 27.8299 21.5875 54.1608
839 1 31.7994 23.1767 55.2699
968 1 0.324878 26.6082 73.5137
760 1 4.50576 25.7699 57.5813
764 1 14.9382 26.2707 56.9123
766 1 21.4251 26.2251 55.5484
1057 1 17.0605 6.50372 77.4809
758 1 0.696753 26.2703 57.3903
662 1 4.90434 17.0129 51.8979
709 1 17.3421 6.24039 53.9146
742 1 34.1835 16.8232 53.1928
778 1 16.4905 8.06825 61.6575
954 1 0.481331 22.1907 74.2087
780 1 22.2497 7.76065 60.2771
782 1 28.4471 8.00219 59.6284
770 1 33.7616 26.041 53.6554
787 1 2.32396 10.5396 60.3625
789 1 7.11413 10.5872 60.7207
720 1 9.23844 12.5346 57.9421
791 1 12.6896 10.0487 59.8174
792 1 16.1309 12.6563 61.9351
793 1 17.9485 10.5974 58.3178
794 1 22.1863 11.8928 59.8164
796 1 28.4341 12.3035 58.9618
867 1 32.3008 9.8833 60.4893
801 1 1.62451 14.9167 59.9325
803 1 6.38997 14.9629 60.9229
805 1 12.7999 14.7795 59.5745
807 1 19.0074 15.1443 58.9074
810 1 28.6995 17.0233 59.2872
881 1 32.2515 14.4305 60.4551
815 1 1.6623 19.2687 60.5007
817 1 6.0794 19.5831 61.0181
819 1 12.9032 19.213 60.0494
806 1 16.4653 17.0204 61.8326
808 1 22.3701 16.7677 60.0296
821 1 18.8821 19.7418 58.7243
895 1 32.5831 19.3899 60.1919
829 1 1.94874 23.4262 60.9955
833 1 12.2637 23.6771 60.0231
835 1 18.8665 23.7636 58.2304
820 1 16.0781 21.0054 61.3837
822 1 22.7756 21.6708 59.8974
907 1 26.5004 23.7177 61.7959
824 1 28.8288 21.6439 58.514
909 1 32.6093 23.7771 60.4176
917 1 14.7336 6.3987 68.7108
831 1 6.4512 24.2174 60.8938
762 1 8.96292 26.4338 58.3438
646 1 0.308041 12.3211 51.1412
834 1 16.5934 25.8399 61.3578
836 1 22.8298 25.5263 60.1131
838 1 28.8625 26.4241 58.9074
774 1 4.01566 8.27614 63.4336
776 1 10.2011 8.77464 62.3668
850 1 23.407 8.17465 64.6001
852 1 30.2272 7.78166 63.8705
788 1 3.60607 12.499 63.5738
790 1 9.60346 12.9656 62.825
861 1 13.7316 11.2119 64.7698
863 1 20.2638 10.3258 63.3997
865 1 25.6833 10.3928 62.2015
864 1 23.5195 12.4682 65.0587
866 1 29.9632 12.4409 63.3174
875 1 13.6978 14.9521 65.1353
877 1 20.1838 14.3178 63.4976
878 1 23.6653 17.2186 64.7281
879 1 25.7501 14.5015 61.5289
802 1 3.87281 17.4222 63.7016
887 1 7.36124 19.1682 65.5388
804 1 9.93963 17.0578 63.0879
889 1 13.7575 19.4535 64.5344
876 1 17.8981 16.8857 66.0829
891 1 20.1826 19.4021 62.8773
893 1 26.2223 19.1474 61.5554
892 1 23.759 21.8974 64.5335
880 1 29.7881 17.265 63.1339
816 1 3.92325 21.6672 63.8934
818 1 9.68737 21.2787 62.6932
903 1 13.7706 23.5865 64.327
905 1 20.2391 23.3882 62.5864
894 1 30.2814 21.0485 62.6701
830 1 3.88683 26.4172 63.4329
832 1 10.3381 25.8631 62.6169
906 1 23.6913 26.0492 64.6201
908 1 30.0434 25.8758 63.2582
1038 1 0.866973 26.0056 78.4446
844 1 4.8529 8.15036 68.0197
846 1 10.5765 8.54932 67.2644
848 1 16.6348 8.6909 65.5929
919 1 20.4597 6.7054 67.7063
922 1 31.4561 8.29432 68.1005
744 1 0.312527 21.5722 57.0269
857 1 1.52526 10.8625 66.2683
858 1 4.9349 12.6407 68.0125
859 1 7.62306 10.614 65.4161
860 1 11.3202 12.9594 67.163
862 1 17.7044 13.0255 66.336
933 1 21.1568 10.4279 68.1085
934 1 24.8318 12.8342 69.566
935 1 27.3399 10.2232 66.5853
937 1 33.7045 10.4039 64.7431
936 1 30.7468 12.9919 67.8874
871 1 1.66188 15.4895 66.671
873 1 7.33732 14.6262 65.4593
872 1 5.24089 17.6274 68.3764
874 1 10.9249 17.3142 67.0516
945 1 14.4399 14.9681 68.7869
947 1 21.5004 15.3104 67.6986
949 1 27.1641 14.5769 65.8834
1055 1 10.8418 6.24913 78.625
885 1 1.59736 19.5619 66.2434
959 1 14.6151 19.4676 68.6714
961 1 21.2965 19.3486 66.9437
963 1 27.4597 19.1922 65.3908
1119 1 33.8668 24.1281 76.1684
950 1 31.0613 17.3318 67.4554
899 1 1.25709 24.0342 66.7175
886 1 5.2412 21.6981 68.1624
901 1 7.64005 23.8977 66.0768
888 1 11.0304 21.9477 66.7211
973 1 14.9274 24.1945 67.9867
890 1 17.599 21.7092 65.3858
975 1 21.5528 23.4948 66.8937
977 1 28.4373 23.8015 65.9601
1035 1 30.9352 21.2156 67.7635
964 1 33.1274 24.1294 64.9711
713 1 29.0303 6.15256 51.9016
900 1 4.93601 26.7117 68.4698
902 1 11.5477 25.7074 66.8373
904 1 17.5482 25.7419 65.5994
2321 1 27.3289 27.9718 66.5228
978 1 31.0931 27.042 68.0787
847 1 13.1161 6.34578 64.5401
916 1 12.3231 8.32758 71.5789
918 1 18.0051 8.38123 70.2675
920 1 25.0011 7.9247 68.8744
927 1 2.20211 10.3616 70.9891
929 1 8.55624 10.3627 69.8674
931 1 14.4744 10.4188 69.36
930 1 12.2276 12.9398 71.7126
932 1 18.1614 12.8787 70.6778
1005 1 28.178 10.6334 70.5624
941 1 1.89496 14.9662 70.6037
943 1 8.4711 14.7004 70.0639
1017 1 21.9771 15.2098 72.2447
948 1 25.1859 17.2587 69.0926
1019 1 28.6458 15.3126 70.3663
955 1 2.21452 19.6148 70.9726
957 1 8.74229 19.3904 69.9858
944 1 12.3556 17.628 72.2521
946 1 18.3548 17.4465 70.2839
1031 1 22.24 19.9239 71.3313
1020 1 28.8669 19.7007 70.7892
1058 1 21.1076 8.3445 79.0861
969 1 2.55653 23.9341 71.1908
971 1 8.74963 24.1025 69.7454
958 1 11.9946 21.3943 71.2396
960 1 18.5713 21.8418 69.9798
1045 1 22.2223 23.8946 71.7012
962 1 25.0058 21.913 68.4042
1047 1 28.5177 23.5909 70.0917
779 1 18.4034 5.92852 58.4995
972 1 12.4296 26.0996 71.2707
974 1 18.6566 26.024 69.9964
976 1 24.722 26.0394 69.1366
1048 1 32.6249 26.0924 72.4938
781 1 24.6422 5.89344 57.6505
914 1 6.14762 8.16086 72.3205
1077 1 33.9318 10.3632 75.2765
986 1 13.1685 8.20415 75.7472
988 1 19.7576 8.37713 74.6605
990 1 26.1097 8.1756 73.0963
992 1 31.9439 8.10058 72.5722
997 1 2.73247 10.1113 75.4255
928 1 5.345 12.638 72.6567
999 1 9.2006 10.5493 74.3726
1001 1 15.9153 10.6706 73.6149
1003 1 22.3674 10.9069 71.7616
1002 1 19.6984 12.881 75.1197
1004 1 26.0171 12.6289 73.8323
1075 1 29.424 10.7411 75.1599
1006 1 31.9486 12.784 71.9732
1011 1 3.29004 15.0392 75.065
942 1 5.50604 17.2986 72.7417
1013 1 9.28616 14.5846 74.3428
1014 1 13.7922 17.272 76.5918
1015 1 16.1034 15.212 73.0057
1018 1 25.9135 16.8435 73.725
1089 1 29.8134 14.8094 74.9132
1022 1 32.3785 17.4525 72.1779
1025 1 3.29469 19.7853 75.6018
1027 1 9.34048 19.3603 74.5329
1029 1 15.7919 19.3801 72.8712
1016 1 19.6679 17.6441 74.8938
1103 1 29.4348 19.4318 75.3753
989 1 22.6592 6.18287 71.7857
1039 1 3.38302 24.0763 75.9181
956 1 5.80788 21.8524 72.714
1041 1 9.41716 24.0568 74.1175
1043 1 15.6373 23.8369 72.6091
1030 1 19.1621 21.7686 74.6428
1032 1 25.4314 21.3667 73.2148
1117 1 29.4781 23.5618 74.6144
1034 1 31.8782 21.4382 72.5266
1114 1 20.4387 25.9929 79.1197
970 1 6.30899 26.0514 72.8162
1042 1 13.6449 26.1072 75.3695
1044 1 19.4916 25.8221 74.7405
1046 1 26.1751 25.9386 73.4352
1104 1 31.0758 21.441 78.5667
1097 1 10.836 19.3519 79.0269
984 1 7.2335 8.05197 76.9694
707 1 11.3909 5.81179 55.3547
1060 1 26.856 8.04602 77.7983
851 1 26.2791 6.18032 62.1311
996 1 0.866987 12.4373 78.0672
998 1 6.48982 12.6628 76.4105
1069 1 11.289 10.865 78.7103
1000 1 13.1876 12.8191 75.6998
1071 1 16.8967 10.3846 77.8838
1073 1 23.3213 10.7045 76.1382
1074 1 27.0288 12.5944 77.7327
1083 1 10.4119 14.9087 78.1942
1076 1 31.7061 12.4897 78.5197
1012 1 6.84327 17.0602 76.8222
1033 1 33.7533 19.4656 64.8361
1085 1 17.1207 14.8675 77.3635
1087 1 23.1336 14.9519 76.5272
1088 1 27.0643 17.4939 77.6865
1090 1 31.58 16.8848 78.6658
1059 1 23.469 6.37967 76.4386
1010 1 1.20741 16.4918 78.1231
2247 1 14.5041 27.8597 64.0166
1099 1 17.2286 19.7457 77.4727
1101 1 23.1469 19.5177 76.0118
1105 1 33.9998 19.5053 75.5845
1024 1 1.39993 21.3428 78.2696
1026 1 7.34452 21.8008 77.1438
2181 1 25.2809 28.4917 57.224
1028 1 13.1259 21.4666 75.7248
1113 1 16.3651 24.0311 77.366
1100 1 21.0748 21.7199 79.0377
1115 1 23.1533 23.9436 75.7646
1102 1 27.0815 21.8021 77.648
1061 1 29.6171 5.71287 74.9736