ITEM: TIMESTEP
319000
ITEM: NUMBER OF ATOMS
16000
ITEM: BOX BOUNDS pp pp pp
2.5642155210547912e-01 1.0194357844789738e+02
5.7975690004751854e+00 9.6402430999520860e+01
-5.1933263119856079e+00 1.0739332631198282e+02
ITEM: ATOMS id type x y z
6 1 15.1487 8.17571 -5.07691
8 1 19.642 8.84879 -4.35451
10 1 24.1716 8.03549 -3.28597
12 1 29.2883 7.76443 -2.56915
14 1 33.2958 8.04487 -2.25559
85 1 3.55381 10.8055 -2.91814
87 1 8.01434 9.89805 -2.36698
18 1 10.4133 12.7323 -5.11831
20 1 14.9552 12.9336 -4.31987
22 1 19.6381 12.7254 -4.12973
24 1 24.2494 12.4885 -3.61642
26 1 28.6223 12.8037 -2.79442
28 1 33.2956 12.7456 -2.35083
99 1 3.4616 14.7418 -3.06137
101 1 8.09803 14.6258 -2.42756
10956 1 0.319055 13.0392 6.0358
34 1 14.8791 17.6447 -4.36426
103 1 12.6789 14.7563 -1.74271
36 1 19.4186 17.2206 -3.7448
40 1 28.5875 17.3193 -2.92595
42 1 32.7233 16.9586 -2.13956
113 1 3.70228 19.4852 -3.16276
115 1 8.13793 19.4405 -2.7829
117 1 12.6304 18.8995 -1.5783
38 1 24.1201 17.0098 -3.73167
127 1 3.35631 23.7894 -3.90821
129 1 8.12907 23.9818 -2.5916
48 1 14.9465 21.666 -4.58006
131 1 11.9236 24.2386 -1.84195
50 1 18.9635 21.8946 -3.86113
52 1 23.5737 21.5815 -3.49971
54 1 28.027 22.4258 -2.84866
56 1 32.7113 22.7544 -2.33355
10878 1 1.20764 8.29862 -0.518665
5744 1 33.8786 10.5478 8.05472
10995 1 0.392485 25.6459 5.91115
81 1 26.6411 5.92104 0.0209515
64 1 19.2214 26.6438 -4.1883
66 1 23.7762 27.1313 -3.52877
68 1 28.6604 26.218 -2.77888
70 1 32.9737 26.5434 -2.75375
289 1 19.341 5.91959 18.2458
72 1 5.8578 8.65692 0.625924
74 1 10.2217 7.63639 1.86327
76 1 14.7916 8.12922 1.03814
5822 1 33.9989 14.5831 14.1837
10891 1 1.2015 12.9686 -0.416381
86 1 5.84126 12.4867 -0.0854833
88 1 9.79016 12.4907 0.992343
89 1 12.3946 10.4629 -1.25376
90 1 14.9488 12.5499 1.88087
91 1 17.1459 10.414 -1.72832
93 1 21.8979 10.6247 -1.04994
95 1 25.9818 10.4746 0.405708
97 1 30.5346 9.93496 0.33275
102 1 10.1505 16.7192 0.73919
104 1 14.5024 17.4384 1.81189
105 1 17.3028 15.3882 -1.07115
107 1 21.7866 14.7183 -0.449318
109 1 25.7569 15.006 0.0970957
111 1 30.3221 14.5966 0.375609
10904 1 0.695312 16.9691 -0.0716012
100 1 5.33965 17.0997 0.619105
119 1 16.4993 19.5114 -1.17758
121 1 21.0281 19.3829 -0.807085
123 1 25.6911 19.686 0.00213172
125 1 30.268 19.4799 0.460249
10917 1 1.17265 21.7413 -0.162494
114 1 5.66023 21.9041 0.0183617
116 1 9.38872 21.4296 0.913743
118 1 13.8364 22.0759 1.8755
133 1 16.9924 23.8332 -1.14905
135 1 21.4961 24.0245 -0.939067
137 1 25.3955 24.4121 -0.431205
139 1 30.2238 23.4931 0.854615
10930 1 0.613893 25.753 -0.87814
128 1 5.40402 25.9382 -0.381385
130 1 9.38509 26.2662 1.67019
132 1 14.0761 26.4761 1.58553
344 1 16.7622 25.6614 21.1091
5770 1 34.1989 19.0971 7.66404
10943 1 0.281693 8.61168 6.01045
78 1 19.2421 7.75619 1.59653
80 1 23.7527 8.52207 2.72316
82 1 28.5312 8.20856 3.47323
84 1 32.9304 8.54824 4.7092
155 1 3.32246 10.8422 3.11147
157 1 7.9596 10.8852 4.02139
159 1 12.4652 10.4485 4.36247
92 1 19.026 12.3814 2.18752
94 1 23.58 12.4502 2.82746
96 1 28.2709 12.9635 3.71893
98 1 32.1181 12.4923 4.03661
169 1 3.33383 14.9133 3.2608
171 1 7.73541 14.8049 4.02097
173 1 12.0822 15.0207 4.68545
106 1 18.9416 16.9226 2.41603
110 1 27.9539 17.6664 3.49981
112 1 32.3146 16.9429 4.0821
183 1 2.78819 19.6174 3.61475
185 1 7.53011 19.1608 3.45135
187 1 11.7631 18.8577 4.40082
189 1 16.3851 19.5209 5.34505
191 1 21.1624 19.611 5.9245
108 1 23.5727 17.0926 2.88435
197 1 2.59088 23.8228 2.78711
199 1 6.91252 23.998 3.88365
201 1 11.5317 23.6098 4.46623
120 1 18.5034 21.4349 2.41204
122 1 23.3107 21.6725 2.54718
124 1 27.6973 21.6887 3.66657
126 1 32.6763 21.463 3.93764
1551 1 25.3286 28.2642 6.31351
306 1 25.9986 12.1365 21.9468
5757 1 34.1179 14.902 7.89177
134 1 18.6398 26.191 2.06343
77 1 17.3563 5.90635 -1.44441
136 1 22.8961 26.1322 3.01338
138 1 27.4838 26.1004 3.55417
140 1 32.1306 26.062 4.28439
153 1 29.7988 6.11941 7.16377
142 1 5.55239 8.15642 6.55024
144 1 9.63585 7.93216 6.88279
146 1 14.3854 8.006 8.01087
381 1 5.32989 14.4079 22.3228
32 1 10.772 17.4977 -5.14607
167 1 29.3436 10.2823 7.2766
156 1 4.86318 12.7332 7.06421
158 1 9.57358 12.0516 7.6957
160 1 13.8635 12.6033 8.39285
161 1 16.7891 10.3515 5.67312
163 1 20.9905 10.3175 6.23891
165 1 25.8109 10.4313 6.47581
211 1 2.44744 5.75309 9.09189
170 1 5.20407 17.2661 6.95474
172 1 9.0084 16.7025 7.54376
174 1 14.3321 17.1215 7.69072
175 1 16.4249 14.7799 5.24612
177 1 20.9733 14.8763 6.04158
179 1 25.4624 14.4212 6.34576
181 1 30.0425 14.5828 7.72598
176 1 18.509 16.4366 8.21941
193 1 25.6847 19.1172 6.62743
195 1 30.373 19.0155 7.15538
409 1 5.35631 23.739 22.8271
184 1 4.89595 21.6062 6.64645
186 1 8.52423 20.9129 6.90009
188 1 12.7274 21.3012 7.25865
203 1 15.7858 23.6608 4.78274
190 1 18.1429 21.8301 8.39257
205 1 20.6112 24.0767 5.70543
207 1 25.4011 23.6748 6.24783
209 1 29.9677 23.886 6.86788
4 1 11.218 8.17862 -4.99684
198 1 4.64163 26.3173 6.55889
200 1 8.94538 26.8712 6.99517
202 1 13.547 26.2962 7.98322
206 1 22.6323 26.3926 8.77587
342 1 12.8972 25.6993 21.0543
148 1 18.3238 8.23877 8.57236
10969 1 0.574903 17.4615 6.01966
150 1 23.0934 7.66962 8.99926
152 1 27.2767 8.22789 10.0595
154 1 31.1622 7.91302 11.213
225 1 2.56514 10.374 9.1901
227 1 7.08259 10.0256 10.4251
229 1 11.2746 10.1187 10.6478
162 1 18.4952 12.8875 9.32727
231 1 15.7308 10.3088 11.8959
233 1 20.7318 9.70854 12.0816
164 1 22.9684 12.4551 9.53434
166 1 26.7755 12.2718 10.4446
168 1 31.9539 12.2589 10.8843
239 1 2.6005 14.8261 9.43136
241 1 6.65851 15.7061 10.3737
243 1 11.3214 14.3877 11.1188
245 1 15.1779 14.7676 11.9202
247 1 20.6465 14.5414 12.1429
178 1 23.0047 17.1919 9.31405
182 1 32.6491 17.5955 10.984
253 1 1.84059 19.5651 9.32409
255 1 6.63998 19.9825 10.5525
257 1 10.9108 19.0396 10.5206
259 1 15.6191 19.4196 11.3801
261 1 19.6026 19.1159 11.8826
263 1 25.0636 19.4182 12.9443
180 1 27.4715 16.7768 10.0293
348 1 26.2865 25.3834 21.6681
267 1 2.15488 24.7196 9.36326
269 1 6.80208 24.2081 10.1294
271 1 10.3792 23.6574 10.1669
273 1 14.9305 23.4198 11.3982
275 1 19.8256 23.7412 11.3862
192 1 22.6093 21.392 9.31376
194 1 27.3504 21.4058 9.55364
196 1 31.6892 21.7208 10.6895
73 1 8.33385 5.77879 -1.9406
340 1 8.23656 25.7161 19.9507
204 1 17.7914 25.704 8.45925
351 1 0.769269 6.18398 21.3547
141 1 3.0111 6.13977 3.29617
208 1 27.278 26.0209 9.90457
210 1 32.0044 26.6189 10.2461
212 1 3.64234 8.36627 13.0481
214 1 8.23516 7.86542 13.6731
216 1 12.7428 7.98412 14.2541
218 1 17.5597 8.01138 14.3862
220 1 22.5021 7.54871 15.5678
226 1 4.23815 12.6051 12.9108
228 1 8.74008 12.7771 14.0575
230 1 13.5361 12.2631 14.2686
232 1 17.731 12.2866 14.8953
234 1 21.9795 12.153 16.2404
235 1 24.8085 9.77863 12.8742
237 1 29.2502 10.3589 13.5715
5809 1 34.0134 10.3221 13.8876
309 1 1.53727 14.8588 15.6988
240 1 4.01063 17.2858 13.0818
242 1 8.79453 17.4201 13.658
249 1 24.5779 14.8272 13.0349
251 1 29.4395 15.0813 13.1896
346 1 21.3446 25.0737 21.6786
323 1 1.26079 19.5556 15.476
244 1 13.3623 16.8889 14.3838
246 1 17.8418 17.317 14.7418
248 1 21.419 16.8894 15.7252
250 1 26.9782 16.8453 16.1944
265 1 29.1484 19.4102 13.4389
5835 1 33.7268 19.6904 13.9914
337 1 1.81499 23.7439 15.2013
254 1 4.14129 22.109 12.5989
256 1 8.63329 22.1196 14.1177
258 1 13.0172 21.1095 13.8915
260 1 17.6745 21.8745 14.1507
262 1 21.8644 21.4751 15.2126
277 1 24.9688 23.651 12.4596
279 1 28.8544 24.2222 13.0152
5848 1 33.5585 24.1014 13.378
71 1 3.79394 5.98765 -3.21075
268 1 4.13114 26.885 12.7829
270 1 8.75899 26.4026 13.646
272 1 13.3027 25.5992 14.1777
274 1 17.7383 26.3351 14.2466
276 1 22.4296 25.894 14.4933
278 1 25.8941 25.6573 16.2462
282 1 3.61375 7.6158 19.049
5913 1 33.3563 23.3689 20.5759
222 1 26.9358 8.10226 15.9965
224 1 31.2172 8.18302 17.259
295 1 1.4992 10.1863 15.7159
296 1 3.52216 12.2674 18.7799
297 1 6.24264 10.434 16.3301
299 1 10.6946 10.09 17.4025
301 1 15.0947 9.86228 18.0094
303 1 19.4309 10.0497 18.4031
305 1 23.9868 10.197 19.2288
236 1 26.4364 12.7812 16.1328
238 1 31.2454 12.514 16.7788
310 1 3.18229 17.1324 19.1817
311 1 6.16856 14.822 16.1582
313 1 10.8694 14.7537 17.0823
315 1 15.4122 15.4991 17.3986
317 1 20.0236 15.0615 19.0291
319 1 23.7967 15.2534 19.1508
325 1 5.92844 19.4067 16.1761
327 1 10.98 19.5178 17.1436
329 1 15.2283 19.5675 17.6106
331 1 19.5923 19.5469 17.9159
333 1 24.1347 19.3516 18.5045
252 1 31.8122 17.0884 16.6063
324 1 3.18631 21.8036 19.1921
339 1 6.12066 24.0372 16.5448
341 1 10.6383 24.0737 17.0567
343 1 15.1427 24.0308 17.1857
345 1 19.6899 24.3282 18.0742
347 1 23.3522 23.0136 19.1477
264 1 26.4018 21.5813 16.1007
349 1 28.7605 23.3937 19.564
266 1 30.901 21.5665 16.9886
338 1 3.65929 25.8078 19.0425
334 1 25.83 21.5166 22.1468
1615 1 11.1257 28.2723 10.7377
1471 1 3.14755 27.9258 -3.69569
280 1 30.4637 26.2183 16.6197
411 1 10.3011 23.3316 23.0491
284 1 8.32775 7.87613 19.6532
286 1 12.3551 7.49426 20.3504
288 1 17.0408 8.0848 21.0611
290 1 21.1519 7.62676 21.0445
292 1 25.811 7.94936 22.5126
1481 1 25.8427 28.168 0.353162
365 1 1.23171 10.7108 21.6273
298 1 8.08003 12.6246 20.1056
1691 1 23.7815 28.0544 19.0322
300 1 13.3589 12.4574 20.3455
302 1 17.1214 12.9143 21.0092
304 1 21.5815 12.2311 22.1106
1549 1 20.7851 28.3159 5.89647
307 1 28.3789 10.2017 19.5445
5874 1 33.3478 10.5046 20.5598
379 1 1.32159 15.0223 21.8694
1483 1 30.2098 28.2894 0.602902
312 1 7.91046 17.2322 19.7103
316 1 17.0436 17.5782 21.2527
318 1 21.5489 16.9549 22.9027
321 1 28.6081 15.0235 19.496
5887 1 33.4092 14.847 20.2711
393 1 1.15399 19.0884 21.9705
1621 1 24.7522 28.2003 12.3433
314 1 12.8252 16.9525 20.4987
320 1 25.4505 17.5647 21.8146
1543 1 7.02022 28.2038 4.03769
335 1 28.6668 19.0618 19.1386
5900 1 33.4135 19.4743 20.1033
407 1 0.797756 23.7338 22.1546
1623 1 28.9759 28.4141 12.6794
326 1 7.72631 21.2413 19.9164
395 1 5.23127 19.7207 22.4302
328 1 12.6447 21.5702 20.1458
330 1 17.2373 21.9043 21.2018
332 1 21.716 20.7952 21.9568
1751 1 0.633922 28.2111 21.7335
213 1 6.91954 6.10871 10.3804
294 1 30.7938 8.02571 22.7696
7096 1 33.7579 28.2116 14.3666
287 1 14.6626 5.86696 17.5296
151 1 25.6219 5.89728 6.42486
369 1 10.2519 9.99297 22.7623
367 1 5.50742 9.71923 22.9454
350 1 30.1613 25.8135 22.6365
27 1 31.0724 10.0108 -5.03242
62 1 15.4162 25.4542 -4.82428
60 1 11.0133 25.8926 -5.15466
352 1 2.65686 8.03601 25.1086
354 1 7.60632 7.97359 26.0923
366 1 2.92923 12.5855 25.8101
368 1 7.64663 12.9993 25.9761
493 1 4.39119 5.92073 34.7839
371 1 14.7374 10.3902 24.2162
373 1 19.5235 9.88795 24.5808
375 1 23.7944 10.1826 24.9949
377 1 27.9398 10.4408 25.7008
435 1 0.582433 10.1887 28.3604
5939 1 32.7791 10.5826 26.3278
382 1 8.35332 16.731 26.5554
433 1 27.7403 6.25008 31.9915
385 1 14.1951 14.8803 24.2021
387 1 18.8078 14.3722 24.8355
389 1 23.3724 14.7075 25.682
391 1 27.7176 15.2008 26.1685
380 1 3.63974 16.9404 24.9951
361 1 23.5566 5.69989 25.3408
399 1 14.8806 19.3327 23.7691
401 1 18.7195 19.0285 24.5235
403 1 23.1102 19.0645 25.7127
405 1 27.5491 19.4228 26.0659
5965 1 33.2579 19.6213 26.6825
394 1 3.55354 21.4075 25.6552
396 1 7.707 21.1493 26.1675
413 1 14.569 24.0029 24.5086
415 1 19.2348 23.9012 24.6792
417 1 23.9279 23.8424 25.2962
419 1 27.9559 23.9174 25.5478
408 1 2.58658 26.3053 25.5104
410 1 7.29385 25.7126 25.5142
6160 1 33.8336 19.5473 41.8707
412 1 11.825 26.2278 26.5898
449 1 0.543125 14.7749 27.9595
634 1 5.47036 7.93667 50.948
356 1 11.5213 8.05107 26.7761
358 1 17.0874 8.17856 27.5891
360 1 21.5838 7.91037 28.0594
362 1 26.2774 7.96708 28.4945
364 1 29.9897 8.44265 29.6165
5926 1 32.4541 5.78234 26.8191
437 1 4.92133 10.4934 28.6066
439 1 9.21851 10.229 29.6713
370 1 12.1068 12.6415 26.9303
372 1 16.8566 12.7605 27.4841
374 1 21.1549 12.5745 28.0712
376 1 25.5686 12.5439 28.6776
378 1 30.2656 12.7313 29.1304
700 1 33.695 25.9454 48.1807
451 1 5.21938 15.2154 28.9069
453 1 9.33284 14.0746 30.2072
384 1 12.3595 17.0467 26.9577
386 1 16.2607 16.8034 27.5682
388 1 20.9191 16.6786 27.9696
5952 1 32.179 14.5696 26.4512
463 1 0.90957 19.3419 27.7723
465 1 5.10475 19.3383 28.8991
467 1 9.66038 19.5843 29.9958
390 1 25.2979 17.5696 28.7553
392 1 30.2753 17.4826 29.2431
359 1 19.1521 6.04078 24.5966
398 1 12.3955 21.1598 26.5138
481 1 9.6306 24.1658 28.926
483 1 13.822 23.3219 29.7803
400 1 16.8467 21.6991 27.4743
402 1 21.0418 21.2916 27.9529
404 1 25.4272 21.5536 28.8899
406 1 30.1797 21.814 29.0255
5978 1 32.8319 23.3741 26.8194
698 1 26.305 26.3481 50.2324
479 1 4.93278 23.8362 28.9403
414 1 16.2038 25.9611 27.622
416 1 20.9362 25.9248 28.1472
418 1 25.5762 26.5611 28.5777
420 1 30.2341 26.6082 28.9641
5991 1 32.5778 6.01083 32.6016
422 1 2.44178 8.03854 31.9154
424 1 6.87892 7.69936 32.5665
426 1 11.6448 7.67401 33.0591
499 1 17.9902 5.73497 37.0974
1821 1 0.408598 28.0508 28.2734
640 1 20.4427 8.04455 51.1099
632 1 0.838514 7.54603 50.6961
322 1 30.0525 16.6143 22.9778
436 1 2.72248 13.4275 31.1106
438 1 6.4917 12.1694 32.7844
440 1 11.0284 12.1975 33.58
441 1 13.9472 10.0009 30.3725
443 1 18.4222 10.2085 30.9146
445 1 23.1013 10.1193 31.5546
447 1 27.4222 10.8427 32.2131
6004 1 31.9593 10.4562 32.5395
455 1 13.8449 14.4779 30.5341
457 1 18.0829 14.7662 30.9714
459 1 23.7224 14.8138 31.1639
461 1 28.0631 15.5345 31.7525
6017 1 32.3079 14.7153 32.6408
450 1 2.24962 17.0665 31.4758
452 1 7.50767 16.8744 32.03
454 1 11.9479 16.7026 33.3438
469 1 13.2316 18.6997 30.4051
471 1 17.9556 19.5127 31.0862
473 1 22.7535 19.124 31.5025
475 1 27.3689 19.5699 32.0696
6030 1 32.1518 19.4361 32.7011
464 1 2.69072 21.1781 32.3842
466 1 7.15342 21.7108 32.2943
468 1 11.7657 21.487 32.7968
485 1 18.7956 23.851 31.1491
487 1 23.2618 23.7441 31.6333
489 1 27.485 23.7928 31.8109
6043 1 32.1563 23.7843 31.9573
478 1 2.64919 26.7433 32.2783
480 1 7.20385 25.7828 32.2554
482 1 11.6457 26.3703 32.3818
484 1 16.2161 25.9041 33.0181
397 1 10.4409 19.4452 23.3158
646 1 0.791272 12.1957 50.287
1901 1 22.7818 27.7976 38.2211
503 1 27.2977 6.2521 38.2219
511 1 13.6652 9.64151 36.8207
428 1 16.0824 7.6577 33.6638
430 1 20.133 7.70221 34.3189
432 1 24.6998 8.43639 34.9277
434 1 29.453 8.58356 35.9795
507 1 4.44489 10.3282 35.5488
509 1 9.04152 9.85956 36.043
442 1 15.1043 12.5836 33.4832
513 1 18.4564 9.50377 36.9777
444 1 20.6251 12.3056 34.1864
448 1 29.3696 13.3502 35.7729
521 1 4.46425 15.1142 35.0935
523 1 8.93511 14.4425 36.1336
525 1 13.5063 14.638 36.8272
456 1 16.3219 16.9343 34.3118
527 1 17.88 14.274 36.3996
458 1 20.4982 16.8581 33.8016
446 1 25.1525 12.6283 34.9396
6082 1 33.0152 14.9605 37.2817
535 1 4.68263 19.114 35.0977
537 1 9.32658 19.2273 36.0288
539 1 14.0448 19.2882 36.357
541 1 18.3847 19.2753 37.4822
543 1 22.5401 19.1673 37.3015
460 1 25.0212 17.006 35.0093
462 1 29.3466 17.3607 36.0431
549 1 4.92616 24.0672 35.3227
551 1 9.2609 23.7721 35.8984
553 1 13.7287 24.1767 36.0278
470 1 16.2144 21.4916 34.03
472 1 20.8829 21.2627 34.5174
474 1 25.1996 21.7115 34.6294
476 1 29.918 21.8285 35.2951
425 1 9.50837 5.819 29.4157
571 1 22.4681 5.77454 43.9073
383 1 9.70697 14.7146 23.46
486 1 20.8537 26.0534 34.4415
488 1 25.0936 26.1941 35.053
490 1 29.7119 26.5509 35.8027
492 1 1.4776 7.78759 37.8391
494 1 6.69002 7.73022 38.4845
496 1 10.618 7.74824 39.8961
1759 1 18.9859 28.015 24.6427
498 1 15.2413 8.11679 40.0762
565 1 8.22694 5.9255 42.319
504 1 30.6151 7.83084 39.88
506 1 2.34452 12.8558 38.0826
508 1 6.70226 12.5494 38.9522
510 1 10.7051 11.8544 39.5721
512 1 15.5419 12.5051 39.907
515 1 22.4065 10.0245 37.648
514 1 19.4391 12.2407 40.3786
517 1 26.911 10.2721 38.4809
6069 1 33.2404 10.2586 36.7991
518 1 30.5424 12.5088 39.9106
524 1 10.8128 17.5357 39.0243
526 1 15.529 16.844 40.2432
529 1 22.2361 14.5206 37.7777
528 1 20.1248 17.7572 40.7179
531 1 26.7501 14.9164 38.7546
532 1 30.8824 16.5685 40.2288
520 1 2.25918 16.7452 38.1692
522 1 6.15738 17.114 38.6277
545 1 27.047 19.7324 38.3842
6095 1 33.2055 18.8865 37.1975
534 1 1.99896 21.4521 38.2524
536 1 6.09255 22.1207 38.3503
538 1 11.1633 21.583 39.4948
555 1 18.2212 24.0137 37.3612
540 1 15.7106 21.4528 40.2272
557 1 22.8401 23.6109 38.021
559 1 27.0235 24.0202 38.0067
546 1 30.8497 21.6394 39.714
6108 1 33.0843 24.1716 37.4747
548 1 1.93338 26.0331 38.3396
550 1 6.76403 26.736 38.5123
552 1 11.4751 26.1769 39.2414
554 1 15.788 26.3783 39.6767
695 1 17.0684 24.1535 49.7412
560 1 30.4808 26.2388 39.8667
693 1 12.433 24.0933 48.9994
686 1 33.0153 21.2971 48.8077
500 1 20.4173 8.01363 40.3825
502 1 25.0362 7.66447 40.7787
1827 1 14.2703 28.0426 30.1301
421 1 1.06772 6.3777 28.7844
577 1 3.7481 9.91011 41.5315
579 1 8.45465 9.78819 42.3446
581 1 12.9873 10.0885 43.1407
583 1 17.8391 10.2205 43.3182
516 1 23.8965 11.6269 40.809
587 1 28.182 10.2412 42.2324
591 1 4.39142 14.6355 41.9239
590 1 1.22368 16.6963 44.0841
593 1 8.61555 15.105 42.2702
595 1 13.159 15.2609 43.035
597 1 17.6533 15.0088 42.9097
599 1 22.2905 14.8153 43.6822
601 1 27.1337 14.705 42.5262
605 1 4.61417 19.4206 41.6397
607 1 8.49927 19.6763 41.7336
609 1 13.4317 19.3237 42.9695
611 1 17.5404 19.5215 44.0126
542 1 19.6183 21.7533 40.7048
613 1 22.0862 18.9425 43.9116
530 1 24.4156 17.0572 41.2385
615 1 28.094 19.3054 42.519
1823 1 5.18324 27.8825 29.0447
619 1 3.86102 24.1137 41.1441
621 1 8.23369 23.9987 42.0324
623 1 12.936 23.9147 42.8576
625 1 17.7495 23.794 43.3493
627 1 22.3247 23.6715 44.2409
544 1 24.8644 21.7848 40.833
629 1 27.6493 23.8968 42.7574
6134 1 34.0915 10.0901 41.1993
616 1 31.4977 21.7953 44.3774
308 1 30.2304 12.7109 22.9863
1831 1 22.9104 28.3497 31.4649
556 1 19.9027 26.3503 41.3714
558 1 24.5182 26.2807 41.2499
562 1 1.60863 7.63856 44.0953
564 1 5.4817 7.64988 44.3974
566 1 10.195 7.47397 45.527
568 1 15.0496 7.65111 46.0433
570 1 19.023 7.50367 46.7651
697 1 22.8067 23.7374 48.339
572 1 25.6608 7.68749 45.3845
574 1 31.7557 8.19861 44.2912
576 1 1.41388 12.3044 44.2557
578 1 6.11941 12.3667 44.7918
580 1 10.7602 12.3139 45.5578
582 1 15.2802 12.5063 46.0169
585 1 21.596 10.1752 43.9331
586 1 25.3302 12.4472 45.2183
657 1 29.2847 10.3452 46.7309
588 1 31.9411 12.1263 44.4208
661 1 3.24159 14.9385 47.6384
594 1 10.3802 17.8441 45.7516
596 1 15.416 17.3988 46.2932
584 1 19.7755 12.2461 46.9656
600 1 25.6717 17.2047 45.0886
602 1 31.7144 17.1477 44.7931
675 1 3.14005 19.738 47.9737
592 1 5.96447 16.6804 45.4337
598 1 19.9981 16.792 46.6464
685 1 29.0426 19.1426 47.0663
604 1 1.69309 21.5297 44.104
606 1 5.72948 21.6099 44.7187
608 1 10.6569 21.8408 45.2051
610 1 15.4874 22.099 46.0102
612 1 19.7853 21.5056 47.0258
614 1 25.618 21.6057 45.5714
699 1 29.3495 23.8707 47.1939
618 1 1.20442 26.1282 44.4464
620 1 5.24141 26.0915 44.3906
622 1 10.2465 26.3372 45.3006
624 1 14.8615 26.0538 46.2506
626 1 19.4206 26.3971 46.3951
357 1 14.584 5.81424 24.2265
628 1 25.3484 25.6643 45.3023
691 1 7.92673 24.3083 48.0205
630 1 31.6636 25.6641 44.2936
431 1 22.9829 6.13901 31.1058
1897 1 13.6865 28.0654 36.405
1755 1 9.91194 28.0919 23.6894
336 1 30.3776 21.0761 23.413
1967 1 13.2905 27.9495 43.3009
684 1 26.8666 22.2331 50.0969
642 1 26.3889 8.25634 49.7582
644 1 33.0628 7.88502 48.8697
1973 1 28.1231 28.4042 43.0336
647 1 3.02528 10.3744 47.7389
688 1 0.450486 26.5143 51.0151
649 1 8.21488 10.2436 47.8418
651 1 12.669 10.7671 48.8339
653 1 16.5339 10.075 49.1769
655 1 22.6406 9.84549 48.4711
656 1 26.5291 12.2919 49.6606
658 1 32.4036 12.5162 49.1159
663 1 7.96462 14.9687 48.3855
665 1 12.5507 14.9169 48.9874
667 1 17.1129 14.7237 49.7918
669 1 23.4641 14.5131 48.3869
670 1 26.4252 17.1064 49.2602
671 1 28.9415 14.5066 47.2926
672 1 32.3453 16.7671 48.9512
660 1 1.09978 16.9106 50.4236
677 1 8.36074 19.6593 48.298
679 1 12.5643 19.3257 48.6469
681 1 17.1803 19.3685 49.5158
683 1 22.9836 19.8115 48.5194
689 1 3.34316 24.4315 47.623
674 1 0.726794 21.7635 50.3991
2043 1 29.5649 28.1816 47.3947
7291 1 31.2874 28.2656 32.538
1899 1 18.2092 28.0569 36.9678
1965 1 8.69577 28.4604 42.0394
1829 1 18.3995 28.3384 31.0166
1895 1 8.85681 28.342 35.7523
7226 1 32.568 28.3592 26.026
758 1 0.752652 26.7514 56.7425
1119 1 33.5147 24.3051 75.833
769 1 30.1494 23.9477 51.4787
638 1 14.0147 8.02633 52.2099
940 1 0.298703 17.4248 73.8727
730 1 0.739259 16.7325 56.5453
712 1 27.6871 7.73072 54.3888
636 1 9.95107 8.31255 51.7743
717 1 3.05595 10.1388 53.857
719 1 6.93377 10.1529 54.813
650 1 9.91476 12.2016 51.021
652 1 14.2227 12.4704 52.7053
723 1 18.4016 10.6979 54.0385
716 1 0.528824 12.1099 57.3233
725 1 24.48 9.51142 52.9057
726 1 27.8786 12.7805 54.0721
727 1 29.9316 10.4407 51.3473
991 1 27.9222 6.03682 70.1466
733 1 7.21499 14.3776 54.504
989 1 21.8038 6.26682 72.0197
664 1 9.82574 17.3908 51.9834
737 1 17.2845 14.6058 53.8217
1049 1 34.0624 24.217 69.5539
739 1 24.3291 14.992 53.0051
728 1 33.8863 12.7529 53.4018
745 1 2.52112 19.9962 53.6904
747 1 7.61634 19.1732 54.4986
666 1 14.5061 17.44 52.6358
751 1 18.2794 19.0665 53.6852
753 1 23.6952 19.7188 52.0224
740 1 28.2057 17.4034 54.5739
755 1 29.9664 19.1058 51.8087
759 1 3.00376 24.2888 54.0692
761 1 7.03946 23.8779 54.6689
678 1 9.99466 22.0832 51.7088
680 1 14.2054 21.6359 52.4204
765 1 17.5281 24.1918 54.311
2323 1 33.5651 28.4903 64.9593
767 1 23.9555 23.7494 52.9148
754 1 27.5226 21.302 54.0612
756 1 33.7396 21.6154 53.2045
702 1 1.28854 7.99866 57.4266
703 1 2.99691 5.82892 54.44
692 1 10.0229 26.2573 51.317
694 1 14.1214 26.2507 51.9566
2387 1 15.997 28.2303 73.0472
768 1 26.8626 25.9527 54.3577
770 1 33.824 26.3841 52.8585
704 1 4.96221 8.4224 58.0845
706 1 9.14236 7.78109 58.4149
708 1 15.4672 7.59281 56.8338
710 1 21.8529 8.14346 55.4763
1104 1 31.7116 21.6752 78.4688
668 1 20.7124 16.9334 51.3924
718 1 4.54792 12.2876 57.8002
720 1 9.21143 12.3932 58.2532
721 1 11.5823 9.79712 55.7516
722 1 15.879 12.2977 56.6813
724 1 21.8896 12.4703 55.2237
795 1 25.3135 9.70064 56.7759
797 1 31.6733 9.83618 56.3134
731 1 3.17864 14.843 54.0361
732 1 4.90844 16.8542 57.5429
735 1 11.9085 14.6719 55.1736
736 1 15.2555 16.8229 57.1931
807 1 18.8891 14.3756 58.3465
809 1 25.4309 14.4622 56.9013
811 1 31.4786 15.1938 56.0917
749 1 11.6597 19.0876 55.0952
738 1 21.863 16.8157 55.2705
823 1 25.027 18.6703 57.0464
825 1 31.6942 19.0469 55.3855
746 1 4.87313 21.5385 57.1965
748 1 9.70116 21.6435 57.6933
763 1 11.8257 23.8634 55.0664
750 1 15.5906 21.2789 56.1828
835 1 18.7916 23.5165 58.7602
752 1 21.1372 21.3687 55.807
837 1 24.7131 23.553 57.5858
839 1 30.9791 23.6856 55.9912
1118 1 31.1574 26.5079 78.8403
760 1 4.7757 26.0969 57.2643
762 1 9.19621 26.217 58.0964
783 1 31.5581 5.85909 56.2335
764 1 15.2505 26.1719 56.7908
766 1 21.7788 25.7449 55.8436
968 1 0.542994 26.6278 73.7706
690 1 5.23799 26.3642 51.2022
2385 1 9.77783 28.4295 73.8218
778 1 16.2506 8.09332 61.7105
780 1 22.6445 7.59738 59.8715
782 1 28.6744 7.56502 59.1017
696 1 20.38 26.3992 51.4383
1076 1 31.6365 13.0318 78.6869
787 1 2.54346 9.98923 61.264
789 1 6.49818 10.1009 61.5151
791 1 12.9006 10.5251 59.4269
792 1 16.6096 12.5278 61.4074
793 1 19.1328 10.5417 58.6769
794 1 22.8082 12.2524 59.8412
865 1 26.5492 10.0566 61.0451
796 1 28.865 12.1893 58.611
867 1 32.6854 9.53672 60.1867
801 1 2.6666 14.8678 60.4189
803 1 7.17179 14.6727 61.0499
734 1 9.22124 17.0782 58.2099
805 1 13.0019 14.9627 59.7643
806 1 16.8829 17.2728 61.1702
808 1 22.4915 17.0118 59.8686
879 1 26.2884 14.6852 61.6819
810 1 29.1057 16.9298 58.4991
881 1 32.3218 14.1336 60.4251
815 1 2.33347 19.4434 59.9314
817 1 7.68291 19.9212 60.6454
819 1 13.1817 19.331 59.6571
821 1 19.3126 18.887 58.0753
893 1 26.0068 19.0379 60.908
895 1 32.1784 19.4571 60.6224
829 1 2.21145 23.6816 60.2008
831 1 6.89437 24.0298 60.5212
833 1 13.1579 23.5005 59.7034
820 1 16.7256 21.088 61.1437
822 1 22.5651 21.5266 59.9248
907 1 25.9913 23.8985 61.4102
824 1 28.238 21.4757 58.86
909 1 31.9442 23.6448 60.6251
2173 1 2.32609 27.9893 60.7725
834 1 17.2091 26.6402 60.7452
777 1 12.6925 5.81069 59.9422
836 1 21.8859 26.027 60.5701
2247 1 14.4601 28.5438 63.7621
838 1 28.2566 26.1953 58.9831
709 1 17.666 6.02967 54.0129
774 1 4.55782 7.3037 64.248
776 1 10.6225 8.268 63.0753
859 1 8.08925 10.3464 65.0013
848 1 17.561 8.1055 66.0444
682 1 20.2428 21.5999 51.6993
850 1 23.6907 8.59052 64.4966
852 1 30.088 8.1728 63.5231
788 1 4.21224 12.4541 63.9778
790 1 10.2859 12.6446 62.7198
861 1 14.252 10.3688 64.0401
862 1 17.7951 12.637 65.9034
863 1 20.326 9.95072 62.8512
864 1 23.8824 12.3147 64.3124
866 1 30.1678 12.1474 63.1977
937 1 33.4536 9.77347 64.8056
802 1 4.51405 17.277 63.5377
875 1 13.9875 15.0307 64.3666
877 1 20.2959 14.8377 62.9541
878 1 23.5318 17.3075 64.4454
880 1 29.3976 16.7154 63.2831
951 1 33.1485 14.5292 64.863
804 1 10.6296 16.4654 62.5418
889 1 13.8624 19.0754 64.2534
891 1 20.1125 19.404 63.0416
894 1 29.4115 21.1761 63.0579
1033 1 33.0452 19.5078 65.3395
741 1 29.8396 14.9176 51.8416
816 1 4.41731 21.3026 63.1846
818 1 10.3539 21.3136 62.7238
901 1 8.07204 23.2486 65.1666
903 1 14.2476 24.0725 63.4377
905 1 19.9626 23.6966 63.1664
892 1 24.1082 21.2237 64.3629
964 1 33.1059 23.8723 64.9695
830 1 4.51174 25.8751 63.6201
832 1 10.8406 25.7736 62.2554
1072 1 20.8198 12.2061 79.0733
714 1 33.6789 8.09168 52.8391
906 1 23.3704 25.8596 64.9879
908 1 29.5389 25.9131 63.0219
2253 1 32.2848 28.4333 60.5013
2315 1 9.08191 28.5323 69.204
844 1 4.96589 8.16275 67.9915
846 1 11.7859 8.26964 67.2733
773 1 2.43252 5.86011 60.4074
1114 1 20.7245 25.9286 79.1099
922 1 31.2075 7.63901 67.3351
857 1 0.989794 10.0328 66.0743
858 1 5.68071 12.6088 68.3829
860 1 11.7167 12.4723 67.1193
931 1 15.1648 10.3399 68.5311
933 1 20.9974 10.5542 67.5792
934 1 24.7605 12.3772 69.3824
935 1 27.5678 10.4942 66.0736
936 1 31.4328 12.4788 67.6649
871 1 1.83498 14.8132 66.6051
872 1 5.37347 17.0396 68.1589
873 1 7.92121 14.7391 65.6954
874 1 11.7646 17.2667 67.1337
945 1 15.294 14.569 68.7078
947 1 21.4773 14.9417 67.4105
949 1 27.4244 14.6057 66.0506
950 1 30.9738 17.1581 67.9468
885 1 1.42671 19.624 66.6475
887 1 8.07371 19.3395 65.2601
876 1 17.9285 17.2899 65.7192
961 1 21.42 19.6668 67.4783
948 1 24.4947 17.0413 68.9532
963 1 27.3515 19.3599 66.0137
899 1 1.33576 23.4096 67.1591
886 1 5.04644 22.134 67.7164
888 1 11.8966 21.935 66.7846
973 1 14.718 24.1099 68.4363
890 1 17.8059 22.0407 65.6737
975 1 21.0907 23.4381 67.0003
977 1 27.2628 24.0906 66.1001
1035 1 30.823 21.8992 67.4319
900 1 5.30275 25.8271 67.978
902 1 11.2938 26.5608 66.4714
904 1 17.8906 25.9456 65.8976
1021 1 33.8635 15.3958 69.997
2321 1 27.2782 28.2667 66.0293
978 1 30.0941 26.4096 67.7557
2243 1 2.03008 28.0048 66.8992
916 1 12.712 7.84253 71.8896
918 1 18.4284 8.13222 70.6941
920 1 24.6004 7.78628 68.8759
927 1 2.60162 10.7216 70.8743
928 1 6.53921 12.6714 72.5368
929 1 8.9646 9.65514 69.7104
930 1 12.3607 12.4904 71.57
932 1 18.965 12.4809 70.2684
1003 1 22.5514 10.2164 72.1122
1005 1 28.4982 10.0785 70.2804
1006 1 31.9577 12.7311 72.2346
941 1 2.80745 14.6214 71.1487
943 1 8.79624 15.1528 70.2252
944 1 12.214 17.2639 71.174
946 1 19.0539 17.2929 70.2367
1015 1 15.997 15.0896 73.0868
1017 1 22.3392 14.819 71.5768
1019 1 28.3506 13.9638 70.2576
955 1 2.64496 20.0966 70.4197
957 1 8.63147 19.6936 69.4095
959 1 15.19 19.5179 68.4088
1031 1 22.8783 19.4639 71.9013
1020 1 28.4126 18.7188 70.3647
969 1 2.79672 24.3073 71.1818
956 1 6.04066 21.82 72.571
958 1 12.5704 22.0361 71.54
960 1 18.3026 22.2873 70.219
1045 1 21.6826 23.8419 71.4348
962 1 25.0322 21.7253 68.9645
1047 1 27.9392 23.8178 70.7392
1058 1 20.7857 7.38458 79.0071
971 1 8.88197 23.9752 69.7351
972 1 12.4839 26.1374 71.578
974 1 18.4152 26.1917 70.6781
2245 1 8.0195 27.7387 64.9635
976 1 25.0053 26.3623 69.3813
2457 1 16.8352 28.4721 78.0329
914 1 5.93077 8.68023 72.7424
986 1 13.2524 8.04014 75.7098
988 1 19.4767 8.61423 75.3643
990 1 25.737 8.39513 73.5237
1061 1 28.9541 6.42533 75.045
992 1 32.1756 7.94156 71.8261
997 1 3.6188 10.534 75.5568
999 1 10.1067 10.2371 74.1067
1000 1 13.4832 12.549 75.9735
1001 1 16.4885 10.4178 73.3242
1002 1 19.9798 12.1616 74.4637
1004 1 26.4226 12.1007 73.9141
1073 1 23.7393 10.1652 76.3527
1075 1 29.7413 10.8068 74.747
1011 1 4.04893 14.9115 74.9353
1013 1 10.2702 14.8403 74.6067
1014 1 13.7069 16.482 75.663
1016 1 19.81 16.9516 74.613
1089 1 29.6937 14.7026 74.7363
1022 1 32.1387 17.5978 72.6956
942 1 6.45188 17.2951 72.7604
1025 1 4.12287 19.4621 75.5676
1027 1 9.50293 19.3972 74.1302
1029 1 16.0223 19.0644 72.7988
1018 1 25.7646 16.8251 73.6113
1103 1 29.5324 19.1537 75.3464
654 1 20.9539 12.2691 51.5272
1039 1 3.83132 24.2551 74.8379
1041 1 9.65886 23.9313 74.3459
1028 1 13.4043 21.2099 76.3171
1043 1 15.784 23.6073 73.3667
1030 1 19.5999 21.3225 74.7852
1032 1 26.0967 21.3167 73.4137
1117 1 29.2848 23.8872 75.2079
1034 1 31.5344 21.3876 72.8547
1116 1 26.6164 26.4746 77.8144
970 1 6.3676 26.0195 72.401
1038 1 1.21805 26.1287 78.2645
1042 1 13.1574 26.0448 76.0202
1040 1 7.04281 26.3443 77.1614
1044 1 19.1443 26.1753 74.6848
1046 1 25.7759 25.89 73.3224
1048 1 31.2687 25.8617 71.6781
982 1 0.441719 8.16575 78.0665
984 1 7.41817 8.23063 77.1414
775 1 6.9577 6.2122 61.5257
779 1 18.7188 5.73253 58.5084
2459 1 23.2725 28.2398 75.8082
1060 1 27.1923 8.49855 78.1676
1062 1 31.6858 8.37347 78.3839
996 1 1.38376 12.8043 78.1266
998 1 7.46729 12.7362 77.1306
1069 1 10.6429 9.70195 78.4786
1071 1 16.7937 10.0303 78.0045
2463 1 33.9995 28.4124 75.6979
1074 1 27.039 12.614 77.9488
2181 1 25.0198 28.1258 57.742
1010 1 1.36971 17.3486 78.6834
1083 1 10.0616 14.6569 79.1224
1012 1 7.09593 17.6245 77.2187
1085 1 17.2855 14.4895 77.4423
1087 1 23.3122 14.8665 76.3145
1090 1 31.8418 16.8827 78.376
1097 1 11.0121 19.174 78.2933
1099 1 16.892 19.2363 77.3692
987 1 16.5602 5.67756 73.2828
1101 1 23.2605 19.4324 76.536
1088 1 27.4534 17.0109 78.096
1024 1 1.60907 22.0037 78.2602
1026 1 7.50905 22.3602 77.175
742 1 34.0134 17.0119 53.0339
1113 1 17.1046 23.7027 77.978
1115 1 22.796 23.5269 75.8694
1102 1 26.5674 21.499 78.1146
2113 1 30.1929 28.1045 51.8976
2109 1 17.9074 28.0433 54.0932
2251 1 26.252 28.2429 62.1853
913 1 2.68453 5.93272 70.6966
847 1 14.2426 5.9238 64.2904
1111 1 11.0016 23.7363 78.7781
648 1 5.37246 12.6728 51.1204
662 1 5.20043 17.2391 51.5313
676 1 5.4674 21.6407 51.2028
1052 1 2.14196 8.17612 82.9674
12048 1 0.459758 7.76668 101.436