ITEM: TIMESTEP
387000
ITEM: NUMBER OF ATOMS
16000
ITEM: BOX BOUNDS pp pp pp
3.8654513567248472e-01 1.0181345486432996e+02
5.7132341223509187e+00 9.6486765877642654e+01
-5.1665070995517226e+00 1.0736650709954871e+02
ITEM: ATOMS id type x y z
6 1 15.5944 7.54168 -4.61315
8 1 19.6304 7.33923 -4.264
10 1 24.5818 7.17987 -3.27702
12 1 28.806 7.94983 -1.82619
14 1 32.8098 8.12917 -1.99794
85 1 3.69432 10.2682 -3.03559
87 1 7.97889 10.8475 -1.89643
20 1 15.0187 12.1009 -4.66172
89 1 12.5312 10.0008 -1.83943
22 1 19.5827 12.2951 -4.30152
24 1 23.8416 12.3384 -3.10491
26 1 28.5528 12.5543 -2.55288
28 1 33.3427 12.8832 -2.29004
99 1 3.03294 14.009 -3.73118
101 1 7.19571 15.226 -1.96334
103 1 12.2919 14.7286 -2.10408
36 1 19.639 16.7516 -3.88125
40 1 28.7581 17.2391 -2.8481
42 1 33.227 17.6502 -2.16113
113 1 3.59043 18.8054 -3.48506
115 1 7.75383 19.3506 -2.33521
34 1 15.2075 16.6294 -4.26946
117 1 12.3878 19.3956 -1.62581
38 1 23.9123 16.8848 -3.43688
127 1 3.715 23.4441 -4.06996
129 1 7.69147 24.1177 -2.223
131 1 12.1165 24.3046 -1.11179
48 1 14.7787 21.5376 -4.66827
50 1 19.5996 21.6157 -4.25625
52 1 24.0857 21.6835 -3.83558
54 1 28.6794 21.8833 -3.05343
56 1 33.5635 22.1303 -2.98464
1471 1 3.5521 28.2028 -2.89594
46 1 10.5536 21.9627 -4.77231
217 1 15.465 5.8073 11.6952
62 1 14.8989 25.8632 -4.70311
64 1 19.6999 26.3512 -3.78989
66 1 23.9384 26.1928 -3.14231
68 1 28.2738 26.5061 -2.94836
70 1 32.8038 26.1553 -2.36495
10878 1 1.29659 8.70055 -0.288917
72 1 5.95795 8.37118 0.206138
74 1 9.8244 8.23785 1.71553
76 1 14.5082 7.96273 1.83298
149 1 21.4475 6.27642 6.09153
32 1 10.6696 17.1099 -4.95573
10891 1 0.990439 12.7938 -0.16584
86 1 5.17803 12.802 0.712541
88 1 9.51158 12.6921 1.21819
90 1 13.9195 12.3617 1.1525
91 1 17.2322 10.587 -1.6156
93 1 21.773 9.72845 -0.511454
95 1 26.236 9.84219 0.0207131
97 1 30.789 10.8424 1.23791
10904 1 1.30957 17.3567 0.210307
102 1 10.2108 17.2738 1.17225
104 1 14.3621 16.6304 1.67098
105 1 17.1312 14.6932 -1.4755
107 1 21.4827 14.429 -0.474636
109 1 25.9978 15.1 0.251127
111 1 30.75 15.0343 0.712427
100 1 5.22913 18.3527 0.644991
119 1 17.1303 18.9484 -1.43918
121 1 22.028 19.6372 -0.790462
123 1 26.9196 19.4956 0.295566
125 1 30.9452 19.6977 0.0113349
10917 1 1.27411 21.6308 -0.678177
114 1 5.58541 22.0191 0.693057
116 1 9.54206 21.6744 1.26547
118 1 14.3707 21.0856 1.23693
133 1 16.7848 23.4734 -1.29046
135 1 21.0266 23.19 -0.949941
137 1 25.6211 23.8666 -0.0972511
139 1 30.3399 23.9903 0.695506
10930 1 1.2796 26.089 0.196258
128 1 5.33899 26.599 0.94961
130 1 9.9431 26.7818 1.49149
132 1 14.4501 25.9954 1.70314
5861 1 33.2839 6.02422 20.6926
153 1 30.2507 5.81865 6.60872
1553 1 30.0724 28.1757 6.75025
78 1 18.9207 8.60063 2.09645
80 1 23.3445 7.89878 3.11352
82 1 27.9055 8.19564 3.77241
84 1 33.0009 8.19141 3.8925
155 1 2.9652 10.6283 3.24647
157 1 6.95899 10.4877 4.0005
159 1 12.2752 11.0508 4.39341
161 1 16.361 10.5616 5.43463
92 1 19.0474 12.4792 2.17695
163 1 21.191 10.7796 6.0772
94 1 23.5842 12.1798 2.99854
96 1 28.2261 12.7098 3.68718
98 1 32.7217 12.1905 4.25944
169 1 3.13114 15.4783 3.64409
171 1 7.39045 14.3483 4.32375
173 1 11.8727 15.0133 4.59602
175 1 16.4816 15.2755 5.15278
108 1 23.7102 16.8798 2.76088
110 1 28.2255 17.1216 3.85968
112 1 32.7374 17.4835 3.77642
183 1 2.67332 19.5921 3.35798
185 1 7.39697 19.8453 3.96899
187 1 11.9218 19.393 4.8768
189 1 16.5395 19.2688 4.62302
106 1 19.4294 16.8772 1.87087
197 1 2.69671 23.3949 2.66187
199 1 7.67173 24.046 4.10251
201 1 12.3172 24.0756 4.82888
203 1 17.1814 24.4414 5.39542
120 1 19.0635 21.047 1.65808
122 1 23.1563 21.3312 2.8256
124 1 27.6963 21.3964 3.56696
126 1 32.4115 21.7525 3.80548
1689 1 19.592 28.1203 18.4807
134 1 19.1057 25.7776 2.27431
5809 1 33.9892 9.899 13.9884
136 1 23.6276 25.825 2.8977
138 1 28.1242 25.8505 3.81383
140 1 32.5639 26.4268 3.92192
7096 1 34.0855 28.4638 14.1809
142 1 4.91773 8.05593 6.87475
144 1 9.13647 7.98621 7.04817
146 1 13.8218 8.2613 7.81128
148 1 18.5318 7.87203 8.60652
27 1 31.4829 10.2766 -5.08176
156 1 4.38099 12.2275 7.16625
158 1 9.26046 12.0751 7.0134
160 1 13.5325 12.747 8.31521
162 1 18.2312 13.0484 8.79154
165 1 25.7845 9.97243 6.61572
167 1 30.5069 10.3031 6.86762
5796 1 33.9467 5.95178 14.1592
143 1 7.79135 6.01269 3.99254
174 1 14.1189 17.364 8.28082
176 1 18.69 17.0982 9.08938
177 1 21.3367 14.9555 5.78131
164 1 23.037 12.5011 9.4637
179 1 25.8498 14.6044 6.02093
181 1 30.4676 15.0371 7.09351
170 1 4.96206 17.513 6.74679
172 1 9.89551 17.9482 7.85126
191 1 21.0002 19.1957 5.82706
193 1 25.6445 19.1645 6.30827
195 1 30.0875 19.786 7.27222
184 1 5.11675 22.1343 6.61524
186 1 9.49705 21.6833 7.74586
188 1 14.2571 22.1127 7.75865
190 1 18.9205 21.411 8.3629
205 1 21.0923 24.1232 6.02532
207 1 25.5389 24.2812 6.80532
209 1 29.9428 23.7257 6.69927
1687 1 14.9509 28.0828 18.0719
287 1 15.0049 5.9121 17.9869
198 1 4.28042 26.2472 5.6495
200 1 9.52235 26.1955 7.11059
202 1 14.3759 26.5238 8.54731
206 1 22.1685 26.1991 9.51575
221 1 24.6288 6.08596 12.3302
150 1 22.8151 7.79063 9.25201
10982 1 0.442613 22.0896 5.96822
145 1 12.2753 5.92319 4.57456
152 1 27.2444 8.17037 9.69563
154 1 32.4837 8.29809 10.5699
225 1 1.73693 10.4786 9.30458
227 1 7.13214 10.0574 10.1636
229 1 11.4912 10.8095 11.0287
231 1 16.2227 9.80417 11.5008
233 1 20.3182 10.0119 12.3328
166 1 27.5809 12.851 9.8019
168 1 32.3924 12.5436 10.6861
239 1 2.20355 15.2023 9.5099
241 1 6.76885 15.006 9.28672
243 1 11.2635 15.7482 10.5836
245 1 15.677 14.4216 11.1722
247 1 20.366 14.7206 12.3006
253 1 2.45154 19.9024 9.59316
255 1 6.95162 19.302 10.9774
257 1 11.5158 19.9703 10.7453
259 1 16.0277 19.9455 11.3122
261 1 20.5572 19.1254 12.7109
178 1 23.1375 16.647 9.21149
180 1 27.8567 17.086 9.42757
182 1 31.7174 17.1979 10.4614
267 1 2.04316 24.4552 9.4782
269 1 6.70375 24.1234 10.5687
271 1 11.2997 23.6662 10.6892
273 1 15.8366 23.8013 11.0631
275 1 20.2665 23.1078 12.6313
192 1 23.0137 21.4751 9.55162
277 1 25.3722 23.9811 12.8712
194 1 27.524 21.744 9.66592
196 1 32.3887 21.7487 10.2292
204 1 18.1382 25.9942 8.76445
208 1 27.9822 26.2237 10.0922
210 1 32.1546 26.3147 10.597
348 1 26.0008 26.1671 22.6923
212 1 4.13866 7.89927 12.7583
214 1 8.74514 8.37295 13.814
216 1 12.9154 8.11685 14.3705
218 1 17.5673 7.73688 15.3608
220 1 22.3172 7.50341 15.8054
222 1 27.1126 8.21028 16.1912
295 1 1.37344 10.386 15.5054
226 1 4.39332 12.4427 12.2349
228 1 8.63267 12.9919 13.1907
230 1 13.3748 12.6184 13.7826
232 1 18.0075 13.0893 14.8703
234 1 22.449 12.4904 15.597
235 1 24.9158 10.1852 12.9031
237 1 29.2531 10.4496 13.2695
309 1 1.8442 14.5556 15.582
240 1 4.53984 17.1528 12.7795
242 1 9.02187 17.4701 14.0829
244 1 13.5649 17.3726 14.3314
248 1 22.5036 16.9177 16.0122
249 1 25.0962 15.0333 12.8075
251 1 29.6238 14.3941 12.6593
353 1 5.84499 5.86718 22.1661
323 1 1.85984 19.2197 16.069
246 1 17.5435 16.9407 14.748
263 1 24.5751 19.5157 12.7557
265 1 29.1223 19.3953 13.2476
1683 1 6.07592 28.3388 17.0409
337 1 1.50614 23.7274 16.0029
254 1 4.11148 21.7787 12.8153
256 1 8.72675 21.4289 13.8128
258 1 13.1288 21.8824 14.3978
260 1 17.225 21.6224 14.7292
262 1 21.8153 21.5834 16.0171
279 1 29.7292 23.4558 13.4967
5848 1 33.9871 23.6218 14.2832
1615 1 10.7831 28.4004 10.9012
268 1 4.18569 26.5001 13.3985
270 1 8.44791 26.2649 13.4149
272 1 13.2135 25.9046 14.322
274 1 17.1396 25.5265 15.2311
276 1 22.7342 25.9877 15.4227
278 1 27.3242 26.2176 16.6206
282 1 3.77313 7.86181 18.6891
73 1 7.97211 5.86002 -2.09312
224 1 31.3855 8.31154 17.0184
296 1 3.96409 12.3506 19.0178
297 1 6.04783 10.6784 16.234
299 1 10.7209 10.8432 16.8944
301 1 15.0221 10.8242 17.6363
303 1 19.7057 10.336 18.3694
305 1 24.3931 10.076 19.1582
236 1 27.0218 12.3943 16.0634
238 1 31.526 12.7135 16.6352
311 1 6.31661 14.5683 16.5654
313 1 11.0293 14.6367 17.1842
315 1 14.8955 14.748 17.8111
317 1 19.5712 15.0363 18.5854
319 1 24.2821 14.6167 19.2499
321 1 29.1451 14.7513 19.4116
252 1 30.8941 17.4057 16.1251
310 1 3.90677 16.4537 19.1872
325 1 6.46164 18.963 16.9745
327 1 11.081 19.301 17.5911
312 1 8.59856 16.5468 19.7846
329 1 15.353 19.5249 17.9779
331 1 19.4908 19.7059 18.1987
333 1 24.0571 19.4093 19.4957
250 1 26.5272 16.9774 16.2273
324 1 3.82336 21.7163 19.456
339 1 5.9217 23.6177 16.2767
341 1 10.4201 24.0196 17.0653
343 1 15.0727 23.4321 17.8154
345 1 19.664 24.319 18.9272
347 1 24.0139 23.7769 19.4516
264 1 26.423 21.6645 16.2436
349 1 28.8731 24.1119 19.5776
266 1 31.0404 21.8898 16.7954
338 1 3.84619 25.5463 20.0368
346 1 21.4456 26.6339 22.474
1551 1 25.4818 28.2625 6.546
344 1 16.9721 26.2439 21.3756
280 1 31.2067 26.8804 16.4462
342 1 12.3216 26.3658 20.518
340 1 7.62217 26.0022 20.3368
284 1 7.50472 8.11575 18.988
286 1 12.2571 8.04751 19.6522
288 1 17.2133 8.14145 20.7617
290 1 21.6266 7.87103 21.9456
292 1 26.3334 7.88496 22.1597
365 1 0.948232 9.8232 21.6784
367 1 5.89922 9.80972 22.4254
298 1 8.16847 12.743 20.2063
300 1 12.3649 12.6368 21.0841
302 1 17.1887 12.9363 21.394
304 1 21.5253 12.3541 21.9096
306 1 26.9193 12.5973 21.6794
307 1 29.1963 10.2424 19.5751
1481 1 26.4405 28.333 0.12579
5874 1 33.1157 10.775 20.2847
379 1 0.646384 14.1563 21.7808
141 1 2.90022 6.49842 3.36221
320 1 26.2953 16.9693 22.7168
5887 1 33.29 15.117 20.2685
393 1 1.25111 18.5803 21.9131
395 1 5.75519 19.1152 22.6017
314 1 12.5765 17.2199 20.6643
316 1 16.8427 17.4704 21.6877
318 1 21.6965 16.9291 21.2233
335 1 28.5241 19.4062 19.5753
5900 1 32.8013 18.9917 19.2859
407 1 1.21903 23.8248 22.2307
1477 1 16.9142 27.9605 -0.389601
326 1 8.39752 21.7893 19.7456
328 1 12.4073 21.9948 20.7801
330 1 16.7678 22.0006 21.5988
332 1 21.4585 21.7858 21.578
334 1 26.0058 21.6117 22.0008
5913 1 33.3077 23.2031 20.1253
1549 1 21.2434 27.8888 5.18805
1621 1 24.7522 28.0971 12.7052
7161 1 32.8537 27.8078 20.6517
75 1 12.6105 6.02241 -2.10248
215 1 11.6156 6.29873 10.8253
77 1 17.0296 6.05878 -0.956409
5835 1 33.8318 19.414 13.9484
71 1 3.91375 5.90635 -3.20118
18 1 10.82 12.6543 -4.94806
1619 1 20.0266 27.8987 12.3122
1611 1 2.40973 28.2565 9.38451
1545 1 12.6086 28.4062 4.89618
281 1 1.83669 5.76736 15.4966
147 1 16.8988 5.84548 5.05358
308 1 31.3318 12.7146 22.9686
336 1 30.6329 21.2846 23.0143
381 1 5.56155 14.6919 22.5124
352 1 3.32382 8.22634 25.4639
354 1 7.30372 8.02123 25.93
356 1 12.467 7.91961 26.8169
505 1 0.493576 10.3246 34.6354
363 1 28.2169 6.24347 26.0418
646 1 0.558906 12.5422 50.1874
571 1 22.3458 5.82836 43.7455
366 1 3.22018 12.1521 25.2531
368 1 7.78601 12.6869 26.3484
369 1 10.514 10.4199 23.3441
371 1 14.7532 10.1966 23.1727
370 1 12.206 12.5858 26.4764
373 1 18.9277 10.3737 24.4877
375 1 24.0983 10.8237 25.2186
382 1 7.15235 17.2993 26.1013
383 1 10.2705 14.7494 23.7894
385 1 15.0163 15.1848 24.1696
387 1 19.3901 15.1061 24.8805
389 1 23.8799 14.9332 24.9214
391 1 28.1915 14.8835 25.7795
565 1 8.32153 5.91097 41.3932
380 1 3.23686 16.8979 25.8232
397 1 9.61251 19.415 23.4755
399 1 14.6288 19.7311 23.9457
401 1 19.1136 19.1352 24.2479
403 1 23.822 19.4116 25.333
405 1 28.302 19.6521 25.9454
394 1 3.20936 21.0248 25.3853
396 1 7.72434 21.2245 26.0953
411 1 10.5021 23.8442 23.4027
413 1 14.5876 24.3943 24.501
398 1 12.086 21.7516 27.3311
415 1 19.1273 23.403 24.891
417 1 23.9685 23.6267 24.9646
419 1 28.3704 23.9245 26.119
563 1 3.64726 5.75257 41.4908
408 1 3.09968 25.5303 26.0363
410 1 7.15358 25.9777 26.6809
5926 1 32.2242 5.6798 26.8364
1899 1 17.8299 28.187 36.7083
409 1 5.96988 23.9003 23.1631
449 1 1.17492 14.4287 28.452
355 1 9.90827 5.81866 23.6565
569 1 17.291 6.35722 43.5589
423 1 4.72525 5.8711 28.6421
358 1 16.9505 8.28937 26.8226
360 1 21.4738 8.30317 27.9946
362 1 26.1122 8.41362 28.2436
364 1 29.8766 8.04379 29.3558
1963 1 3.83685 28.2786 41.3156
437 1 5.13792 9.96537 28.9471
439 1 9.52481 10.3324 29.6635
372 1 16.8584 12.1436 27.167
374 1 20.8412 12.4613 28.3707
376 1 25.5539 12.6694 28.6533
377 1 28.7938 11.2249 25.7684
378 1 30.0833 12.9143 29.4777
5939 1 32.9983 10.2197 26.5476
700 1 32.5366 26.2437 48.912
451 1 5.25003 14.5548 28.7225
453 1 9.91472 14.9307 29.6137
455 1 14.2366 14.8327 30.1691
5952 1 32.8616 14.7744 26.7524
465 1 4.7021 19.287 29.128
467 1 9.50721 18.7976 29.7688
384 1 12.4015 17.2548 26.5869
386 1 17.109 17.2366 27.0355
388 1 21.2279 16.6849 28.4054
402 1 21.315 20.824 28.0559
390 1 25.8174 17.1539 28.6357
392 1 30.6011 16.973 29.4585
5965 1 32.987 18.9248 26.6089
479 1 4.76201 23.532 28.5687
481 1 9.53924 23.8625 29.7069
483 1 14.1465 23.8942 30.7978
400 1 17.0037 21.7664 27.7214
404 1 25.3248 21.8545 29.14
406 1 30.1548 21.5601 29.3324
5978 1 32.719 23.7023 26.6105
463 1 0.493023 19.091 28.3921
435 1 0.677447 10.1443 28.5465
412 1 12.2279 26.2443 26.9633
477 1 0.731573 23.8238 28.2454
414 1 16.9923 26.2284 27.7936
416 1 21.2103 26.2267 27.2752
418 1 25.2657 26.4761 28.391
420 1 30.4775 26.5472 29.3998
422 1 3.05679 7.87342 31.6067
424 1 7.07187 7.89702 31.9807
426 1 12.05 7.48025 32.6805
428 1 16.5566 8.18013 33.5822
662 1 5.25546 16.553 50.3437
697 1 22.7387 23.7855 48.8015
436 1 3.4303 12.5623 31.7356
438 1 7.66127 12.4428 32.4123
441 1 14.1511 10.1542 30.3449
440 1 12.1498 12.2197 32.9204
443 1 18.6606 9.83696 30.7963
442 1 16.1539 13.0456 33.7881
445 1 23.3643 10.2043 31.428
447 1 27.3227 10.3142 32.3829
6004 1 31.9559 10.2581 32.8586
450 1 3.00945 17.2429 31.8903
454 1 12.0648 17.0088 33.2337
457 1 18.154 14.5135 30.3422
459 1 23.3257 14.9955 31.6925
461 1 27.3227 15.0827 32.264
6017 1 31.871 14.6652 32.4998
452 1 7.00021 17.0584 32.3484
469 1 14.2449 19.203 30.1771
471 1 18.2169 19.1423 30.2663
456 1 16.5602 17.6926 33.315
473 1 23.0387 19.5523 31.486
475 1 28.1052 19.8052 32.1758
6030 1 32.8714 20.1067 32.5956
464 1 2.76044 21.9143 32.7189
466 1 6.70836 21.5937 32.3259
468 1 11.5468 21.4195 31.9208
485 1 18.7791 23.9162 30.554
470 1 16.3598 21.8029 33.7993
487 1 22.686 24.467 30.5673
489 1 27.7562 24.2668 32.4466
6043 1 32.6363 24.0035 32.1694
478 1 2.91468 25.7257 31.696
480 1 6.7541 26.2688 31.9183
482 1 11.657 25.9781 33.0223
294 1 30.9203 7.89475 23.2922
695 1 16.8854 23.846 49.8926
361 1 23.7176 6.08035 24.9256
693 1 13.0348 24.305 48.8337
698 1 26.7084 25.8264 50.4111
1893 1 4.29638 28.2192 35.3999
513 1 17.7616 10.258 36.9551
430 1 20.6374 7.53172 34.2804
432 1 25.0515 7.87869 35.3476
434 1 29.8928 7.84068 35.7172
507 1 4.3292 10.2754 34.9569
509 1 8.75559 10.1212 35.5131
511 1 13.3063 9.62286 35.5696
444 1 20.749 12.2702 33.7479
446 1 24.8581 12.3788 35.4711
448 1 29.6246 12.6275 35.8336
6069 1 32.6874 10.4965 37.8221
521 1 4.55584 14.5292 35.5222
523 1 9.13186 14.5532 35.7729
525 1 13.7801 15.0231 36.0798
527 1 18.5998 14.5723 36.476
458 1 20.9575 17.4514 34.5741
460 1 25.4542 17.526 34.947
462 1 30.5089 17.2499 35.1446
535 1 4.52834 18.6672 35.1971
537 1 9.19083 19.2748 35.5537
539 1 14.1725 19.4171 36.9249
541 1 18.0398 19.8394 36.966
6095 1 33.4737 19.8827 36.9789
549 1 4.66233 23.6131 35.3635
551 1 9.46671 23.4339 35.43
553 1 13.6355 23.9936 36.8198
555 1 17.8095 24.2312 37.1719
472 1 20.7701 22.2307 34.1564
474 1 25.3047 21.7341 34.5633
476 1 29.3226 21.8579 35.0361
6108 1 34.0823 24.237 37.5609
484 1 16.2663 26.2866 33.7343
486 1 20.9714 26.0406 34.0954
488 1 24.8547 26.3309 34.2287
490 1 29.9236 26.431 35.9165
492 1 2.29159 7.65345 37.5194
494 1 6.20206 7.74243 38.4493
496 1 10.6995 8.01741 39.2233
498 1 15.2938 8.48603 39.7827
500 1 19.8979 8.12523 40.5981
504 1 30.0605 7.91162 40.0569
506 1 2.2332 12.3696 37.5147
508 1 6.37233 12.4181 38.4801
510 1 11.143 12.4596 38.6479
512 1 15.8079 12.7241 39.8116
515 1 22.3407 10.2941 37.6177
514 1 19.6208 12.9629 40.2628
517 1 26.9615 10.4881 38.5172
518 1 30.714 12.6567 40.3068
522 1 6.45389 16.6884 38.5805
524 1 10.6127 17.1244 38.8995
526 1 16.0707 17.1941 39.6832
529 1 23.08 15.0371 37.791
528 1 20.477 16.9895 39.9758
531 1 27.8764 14.9327 38.2787
6082 1 33.0744 15.0707 37.047
532 1 31.0351 17.2568 39.7014
520 1 1.80779 16.9954 38.2655
543 1 23.1731 19.4498 37.2905
545 1 27.5538 19.617 38.208
534 1 1.75294 21.7988 37.427
536 1 6.89272 21.0081 38.4102
538 1 10.7284 21.5078 39.4164
540 1 15.7587 21.762 39.491
557 1 23.0036 24.19 37.824
542 1 20.3102 21.7121 40.2043
559 1 26.8694 24.3667 37.7552
546 1 30.2977 21.7965 39.4073
548 1 2.3996 26.1917 38.7841
550 1 6.85681 25.5341 38.3038
552 1 11.0389 25.9812 39.1659
433 1 27.6474 5.87082 31.9652
554 1 15.5902 26.3367 39.7822
427 1 14.4674 5.70887 29.7093
556 1 20.1673 26.3382 40.6024
668 1 20.47 16.5927 51.024
6173 1 34.0537 23.6688 41.9115
560 1 30.7542 26.087 39.8935
322 1 31.0015 17.1209 23.0686
502 1 24.1586 8.05018 41.0543
6134 1 33.6939 10.0239 42.0349
577 1 4.42567 10.337 41.0638
579 1 8.86005 10.234 41.9538
581 1 12.9571 10.1649 42.3135
583 1 17.5027 10.9717 43.2416
585 1 21.9018 9.83542 43.567
516 1 24.9196 12.5606 41.098
587 1 28.6635 10.6276 42.6551
591 1 3.65498 14.661 41.437
593 1 8.657 14.7244 41.9573
595 1 13.436 14.6903 41.9983
597 1 17.9971 15.5979 42.8335
530 1 24.6775 17.5866 41.3166
601 1 27.9993 15.004 43.0068
605 1 4.10748 19.541 41.3753
607 1 8.63704 19.4233 42.3442
609 1 13.182 19.8494 41.9742
611 1 17.8104 19.3239 43.5532
613 1 22.063 20.0909 44.2307
615 1 28.3965 19.4159 42.9764
633 1 3.86849 6.08592 47.8757
602 1 31.8992 16.6448 44.813
619 1 4.34199 23.5477 41.0603
621 1 8.59219 23.669 41.9969
623 1 13.1109 23.6398 42.7676
625 1 17.6737 24.6576 43.1036
627 1 21.8603 23.8689 44.2616
544 1 24.8328 21.6538 41.1629
629 1 28.0747 23.891 42.9885
616 1 31.8194 21.0898 44.1297
688 1 1.33417 26.0481 50.0847
618 1 1.64234 26.6853 43.9674
431 1 23.1239 5.95088 31.6248
1903 1 27.0524 28.2358 37.9265
643 1 29.3026 6.04134 47.413
558 1 24.6217 26.3169 41.4734
686 1 32.5111 21.3138 48.7828
562 1 1.73314 8.24703 44.1334
564 1 6.26139 8.0188 44.9148
566 1 10.5037 7.41941 45.2861
568 1 15.3743 8.40242 46.1443
570 1 19.7441 8.25831 46.5156
572 1 26.0596 7.91947 45.0803
574 1 31.3652 8.23416 44.4816
576 1 1.51514 12.7115 44.1041
578 1 6.20777 12.0626 44.3904
580 1 10.5664 12.0395 45.7347
582 1 15.1102 12.4207 45.6845
584 1 19.627 12.6227 47.1636
586 1 25.2331 12.2137 45.6449
657 1 28.9478 10.7859 47.4661
588 1 31.6222 12.2136 44.9879
590 1 1.55684 17.5825 43.8282
596 1 14.7333 17.2602 45.6674
598 1 19.7024 16.9393 46.7073
599 1 22.4398 14.443 43.689
600 1 25.3477 16.8664 45.7002
671 1 29.1404 15.2608 47.7197
592 1 5.81415 16.7086 44.5893
594 1 10.9948 16.8848 45.2894
685 1 29.0948 19.0277 47.3447
604 1 1.20681 22.1645 44.0926
689 1 3.52467 23.8139 47.5125
606 1 5.85813 21.564 44.3062
608 1 10.7279 21.8389 45.648
610 1 15.5147 21.777 45.9284
612 1 19.1355 21.6962 46.5208
614 1 25.3922 21.5044 45.944
699 1 29.0229 23.9917 47.7277
1965 1 8.32487 28.1598 42.0305
620 1 6.21422 25.7788 44.1832
622 1 9.7585 25.8556 46.7657
624 1 15.0941 26.3225 45.9218
626 1 19.4202 26.418 46.9936
628 1 25.597 26.1722 45.9342
630 1 31.3214 25.9001 44.6514
647 1 3.23439 10.1473 47.7029
684 1 26.8922 21.5993 50.2852
6056 1 33.0134 5.92758 36.8242
642 1 26.8561 8.22791 49.7556
644 1 32.7881 8.39217 48.8769
650 1 10.1409 12.1583 50.955
649 1 8.04341 10.1968 47.9406
651 1 12.4215 10.056 48.4464
653 1 17.0806 10.364 49.5097
655 1 22.8545 10.1913 48.0963
656 1 27.2846 12.7667 50.4288
658 1 33.1264 12.4195 49.1246
660 1 0.984324 17.2212 50.0201
661 1 3.53129 14.6414 47.6073
663 1 8.06157 14.4108 47.9631
665 1 12.4844 14.7162 48.9425
667 1 16.2906 15.1155 49.1582
669 1 23.2135 14.7077 48.848
672 1 33.037 17.1897 49.2879
675 1 2.86805 19.237 47.1571
677 1 8.38827 19.0452 47.4803
679 1 12.7675 19.5076 49.1226
681 1 17.3556 19.8664 49.6959
1823 1 4.71943 27.9406 28.9652
683 1 22.6203 19.2322 48.733
670 1 26.3922 17.602 50.175
674 1 0.991782 21.243 50.1985
691 1 7.32424 23.0532 48.2251
350 1 30.6559 25.9852 23.3715
1755 1 9.84374 28.3009 23.5778
1967 1 13.2382 28.0851 42.3303
1901 1 22.4551 28.407 37.1373
1833 1 27.6448 28.2896 32.1102
1973 1 27.851 28.3048 42.6774
676 1 5.06255 21.202 50.976
632 1 0.871314 8.2023 50.8255
987 1 16.2612 5.66664 72.7108
636 1 10.0691 8.12031 51.6595
638 1 14.8244 7.77042 52.4702
783 1 31.2975 5.7209 56.5655
712 1 28.1096 8.22705 54.2431
773 1 2.24753 6.14065 60.0786
717 1 3.11839 10.8945 54.0459
678 1 10.2878 21.6544 51.6699
719 1 7.50399 10.036 54.8016
716 1 0.655408 12.8311 56.4323
652 1 14.6532 12.1238 52.1728
723 1 18.5951 10.4005 53.4617
926 1 0.497374 12.2564 73.7796
725 1 24.3303 10.1505 52.5882
726 1 27.6517 12.1323 54.8997
727 1 30.3069 10.554 52.0182
1104 1 30.9775 20.6181 78.511
664 1 9.87008 16.9581 51.3582
666 1 14.6733 16.8082 52.275
737 1 17.8973 14.7759 53.4008
739 1 24.3529 14.7372 53.2485
741 1 30.0811 15.3732 51.6624
740 1 27.8435 16.868 54.4984
742 1 33.5347 16.8056 53.791
745 1 3.04721 18.6364 53.8752
747 1 7.61988 19.0589 54.3602
751 1 18.1995 19.4987 54.3098
753 1 23.9997 19.1071 52.6431
755 1 30.0016 20.1073 51.51
759 1 2.63762 23.5016 53.5209
1058 1 21.1885 8.02974 78.8669
2177 1 12.3772 28.2012 59.5775
680 1 14.5665 21.5279 52.0507
765 1 17.8395 24.2202 54.2633
744 1 0.773047 21.4833 56.0639
767 1 24.2668 23.5946 53.6207
769 1 30.6653 23.7812 52.0661
940 1 0.291197 16.8334 73.5193
1072 1 20.7977 12.7833 78.6897
989 1 22.3076 5.64566 71.8054
1114 1 20.5042 26.0938 78.7911
1007 1 34.115 10.8778 69.1424
694 1 13.9515 25.7981 52.3944
1077 1 33.8101 10.106 75.8901
696 1 20.4346 26.2536 51.7566
692 1 9.40454 25.9039 51.4593
705 1 7.64088 5.72041 54.9548
770 1 33.1131 26.3529 53.6267
704 1 5.06082 8.90227 57.3342
706 1 9.91133 7.98781 57.9151
708 1 15.7009 8.09005 56.6674
1102 1 26.5143 21.2817 77.3264
710 1 21.5846 8.03554 55.1952
718 1 5.18831 12.3102 57.1781
721 1 12.1253 10.5292 54.7452
722 1 15.4505 12.8794 56.8717
724 1 21.3992 12.4887 55.7518
795 1 25.0347 9.97325 57.3499
797 1 31.3626 10.5497 57.4756
731 1 3.13268 14.7291 54.1329
733 1 7.52181 14.6298 54.4307
735 1 11.6006 14.4606 54.5926
734 1 9.43799 16.8528 58.0027
736 1 15.2947 16.6901 56.7301
738 1 21.7426 17.2732 56.2647
809 1 25.3805 14.7233 57.8437
811 1 30.6627 15.1436 56.1076
1118 1 31.5648 25.2075 78.6811
732 1 4.74831 16.7926 57.852
748 1 9.58418 21.6419 57.6573
749 1 12.1145 19.0578 55.0215
823 1 25.0593 19.5523 57.4671
825 1 30.9449 19.833 56.4777
2103 1 2.65604 28.0323 54.0787
761 1 7.18166 23.2044 54.5367
746 1 5.15926 20.682 57.029
763 1 11.7338 23.5806 55.0464
750 1 15.6617 21.4571 56.4062
752 1 21.4023 21.3322 55.5662
837 1 25.2617 23.9144 58.3443
754 1 27.7277 21.255 54.5356
839 1 30.7977 23.8609 56.2194
1116 1 27.0871 25.9665 77.7788
760 1 4.86471 25.2725 57.188
762 1 9.35565 26.2933 58.0909
2107 1 11.9525 28.3276 54.8785
764 1 15.4937 25.988 56.7356
766 1 21.6437 26.0243 55.9835
2181 1 25.047 28.5846 57.3918
768 1 27.4853 25.872 55.0026
756 1 33.716 21.8263 53.303
787 1 2.28711 10.4866 59.9958
1042 1 12.7964 26.2605 75.883
923 1 33.3815 5.8414 65.1707
778 1 16.7103 7.921 61.2207
780 1 21.9405 7.77549 59.9441
782 1 28.6159 8.34908 59.3516
728 1 33.9422 12.5671 53.8759
789 1 6.6234 10.0461 60.7647
720 1 9.57389 12.8752 58.0067
791 1 12.9367 10.3934 59.846
792 1 16.6203 12.4196 61.3472
793 1 19.3645 10.4114 58.2445
794 1 22.794 13.0671 60.2313
865 1 25.7149 9.88839 61.9658
796 1 28.3868 12.5807 59.2447
867 1 32.7555 10.3485 61.4041
801 1 2.67631 14.6233 60.2164
803 1 7.04815 14.3855 61.0873
805 1 12.8194 14.9945 59.2231
807 1 18.8329 14.6545 58.0939
806 1 16.5855 16.8503 61.2239
808 1 22.3073 17.02 60.1708
879 1 25.8555 14.9037 62.3631
810 1 28.7158 17.7338 59.1127
881 1 31.8957 14.4487 59.7059
815 1 2.30729 19.2836 59.8187
817 1 6.66924 19.1683 61.0969
819 1 13.1357 19.3374 59.5417
821 1 19.0665 19.3852 58.7941
893 1 25.7247 19.5056 62.2474
895 1 32.0384 19.2899 60.9038
829 1 2.40838 23.9832 60.1415
831 1 6.95791 23.5214 60.0823
833 1 13.1733 24.0308 59.5008
835 1 19.1288 23.6507 58.7208
820 1 16.5081 21.1707 61.4807
822 1 22.957 21.4875 60.4736
824 1 28.2582 21.9347 59.8443
909 1 32.3088 23.9935 60.6328
634 1 5.29854 7.87449 51.0808
781 1 25.2425 6.09594 57.4204
834 1 16.5929 26.3249 61.6206
915 1 9.08889 5.84356 69.6002
836 1 22.6988 26.3008 60.5676
838 1 28.7762 26.571 59.3031
1115 1 22.9237 24.1205 76.3247
774 1 3.94102 7.68447 63.5313
776 1 10.6101 8.03234 62.5519
1062 1 31.5902 8.01756 78.2807
714 1 33.7604 8.33723 53.638
850 1 23.5567 8.05339 64.7107
852 1 29.9914 7.09536 63.3811
1113 1 16.3544 23.9877 77.8596
788 1 4.10794 12.3157 64.0997
790 1 10.9231 12.7888 62.7622
861 1 13.7741 9.92485 64.1919
863 1 20.0107 10.7481 63.0925
864 1 23.8867 12.6372 64.948
866 1 29.7428 12.2512 63.0923
937 1 32.7614 10.4608 65.4099
802 1 4.52152 17.0159 63.9698
804 1 10.3735 17.2702 62.4448
875 1 14.1768 15.148 64.1529
877 1 20.1829 14.5422 63.3325
878 1 23.6384 17.1444 64.9387
880 1 29.5006 16.9349 62.8007
951 1 32.6566 14.717 63.3133
889 1 14.1969 19.5064 64.1239
891 1 20.1633 19.2475 63.065
1033 1 33.5104 19.1978 65.4903
816 1 4.31633 21.7156 63.5601
818 1 10.4409 21.8548 62.2918
903 1 14.0741 23.7494 64.5797
890 1 17.116 21.6236 65.9118
905 1 20.0649 23.4641 63.2273
907 1 26.2679 24.1697 62.3339
892 1 23.1559 21.8878 65.0301
894 1 29.8457 21.5056 63.6626
830 1 4.10439 26.4004 63.2736
1091 1 33.6974 14.131 74.9445
832 1 9.81502 25.8871 62.4686
1111 1 11.3324 23.7965 78.7789
702 1 0.633052 7.85997 56.835
906 1 23.346 26.5957 64.9151
1049 1 34.2274 23.6267 69.5173
908 1 29.3161 26.046 63.2599
709 1 17.7494 5.85326 54.1171
844 1 5.17266 7.6691 68.179
846 1 11.3639 8.37109 66.9049
2247 1 13.7094 28.185 63.2766
848 1 17.5547 7.75552 65.7597
922 1 30.7536 7.77156 68.0455
857 1 1.45809 10.1169 66.7359
858 1 5.31933 12.3608 68.6202
859 1 7.52848 10.279 65.0077
860 1 11.5049 12.4955 66.6119
931 1 15.0123 10.4988 68.9175
862 1 17.5684 12.4599 65.7096
933 1 21.2954 9.88635 67.6159
935 1 27.4617 9.75262 66.2498
936 1 30.5162 12.5207 68.5108
871 1 2.06809 14.8868 66.3096
873 1 7.78027 14.7704 65.5777
874 1 11.5925 17.2465 66.891
945 1 15.1121 15.2077 68.5511
876 1 18.0598 17.1008 65.6323
947 1 20.9945 14.7812 68.2019
949 1 26.9917 14.5675 66.1653
950 1 30.4539 17.2355 67.696
654 1 20.67 12.6008 51.2666
885 1 1.46005 19.5496 66.6184
887 1 7.97975 19.5848 65.5672
872 1 4.97927 16.9867 67.9196
959 1 15.0244 19.3919 68.6533
961 1 20.477 20.0193 67.0388
963 1 27.2847 19.3237 66.1263
899 1 1.49291 23.8785 65.5992
901 1 7.64583 23.5993 64.7557
886 1 4.78899 21.6524 68.0803
888 1 11.8655 21.2453 66.7904
973 1 14.4946 24.0237 68.3964
975 1 20.2756 24.6317 67.8545
977 1 27.198 24.2537 66.23
964 1 33.3947 24.088 65.1669
1035 1 30.7686 21.8443 68.1071
1040 1 7.17388 26.2169 76.7161
900 1 4.92798 26.4215 67.29
902 1 11.3304 25.8959 66.8462
904 1 17.5377 26.2713 65.5665
1119 1 33.9884 23.5324 76.7109
2105 1 7.3724 28.4346 54.8041
978 1 30.9915 26.5101 67.5623
1026 1 7.64263 21.5417 76.9051
1038 1 0.82758 26.4372 78.3575
916 1 12.6247 8.17694 71.5247
918 1 19.1489 7.51146 70.0408
920 1 24.8755 8.59941 69.0324
1090 1 32.1939 16.9189 78.0966
992 1 31.6513 8.02453 72.4386
927 1 2.31785 9.95812 71.2203
929 1 9.30099 10.5646 69.2028
930 1 12.2153 12.7656 71.2642
932 1 18.3698 12.1576 70.0745
1003 1 22.2436 10.5076 71.9377
934 1 24.9148 13.3776 69.6095
1005 1 28.2345 10.4535 70.8105
1006 1 31.1539 12.7987 72.1244
941 1 2.35634 14.4194 71.0442
943 1 9.21745 14.7726 69.3043
944 1 12.1819 17.1898 71.1929
1017 1 21.4478 15.2844 71.8948
948 1 24.6094 17.6186 68.78
1019 1 28.3361 15.1252 70.7686
955 1 2.4854 19.0423 70.5275
957 1 8.10062 20.1889 69.3038
946 1 18.7752 17.5621 70.1524
1031 1 21.9691 19.5836 72.0497
1020 1 28.498 19.4759 70.5572
969 1 2.79961 23.7618 71.3
971 1 8.54381 24.1573 69.2709
958 1 11.8381 22.0794 71.3113
960 1 18.3756 22.2391 70.4743
962 1 25.2378 22.2165 68.9973
1047 1 28.8735 24.1218 70.7868
707 1 12.3682 5.81014 54.5285
1097 1 11.2207 19.2531 78.0432
972 1 12.2287 26.6102 71.4798
974 1 17.7987 26.5161 70.5327
976 1 24.4318 26.7645 68.7195
2461 1 29.592 28.0436 75.0758
914 1 6.35694 8.35566 72.0247
986 1 13.5318 7.26459 75.6585
1024 1 1.25953 21.58 78.3011
988 1 19.9136 8.64833 74.5495
990 1 25.8595 8.10724 73.5519
682 1 20.4003 21.2661 51.6178
917 1 14.6267 5.90512 68.7886
997 1 3.74194 10.4592 74.9854
928 1 6.45567 12.4094 72.4173
999 1 10.4074 10.137 73.7652
1001 1 16.0537 10.4813 72.9568
1073 1 23.2839 10.1875 75.9799
1004 1 25.8619 12.8874 73.1785
1075 1 29.0766 10.6423 75.4573
1011 1 4.02951 15.0102 75.4066
942 1 6.42298 17.1263 72.5114
1013 1 10.1531 15.0033 73.9296
1014 1 13.7235 17.2572 75.3723
1015 1 15.7949 15.1793 72.7969
1002 1 20.0333 12.5467 74.3337
1057 1 16.9178 5.85075 77.5085
1022 1 31.9179 16.6929 72.0128
1025 1 4.04093 19.671 74.8772
1027 1 10.2243 19.4417 73.4517
1029 1 15.7768 19.4731 73.0623
1016 1 19.5484 17.1206 74.7484
1101 1 22.259 19.6305 76.0227
1018 1 25.4183 17.3364 73.4792
1103 1 29.2953 19.3179 74.9918
690 1 5.173 26.0178 51.2299
1039 1 3.58237 23.6717 75.7517
956 1 6.43424 21.8598 72.6042
1041 1 9.67027 23.489 74.1962
1028 1 13.6788 21.7068 75.3739
1043 1 15.6574 24.1833 73.2767
1045 1 22.1576 24.0967 71.9359
1030 1 19.3057 21.807 75.0273
1032 1 25.598 21.6601 73.4279
1117 1 29.9174 23.5379 75.6374
1034 1 32.2845 21.8252 72.5676
1089 1 29.4937 14.5782 75.3046
970 1 5.99691 26.5195 72.7846
1010 1 2.01087 16.8927 78.0844
1088 1 26.8748 17.5308 77.8891
1044 1 18.8783 26.1366 74.5531
1046 1 25.4358 26.1865 73.3324
1048 1 31.9349 25.5947 72.9972
982 1 0.974423 8.31932 77.7832
984 1 7.41894 7.69121 76.5239
1061 1 29.8649 6.0358 74.8477
1060 1 26.9056 7.43294 77.4814
1055 1 10.4819 5.80418 78.6486
996 1 1.4862 12.9451 78.0692
998 1 8.00048 12.1506 76.1017
1087 1 22.909 15.7761 75.9701
1069 1 11.086 9.73612 77.9621
1000 1 13.3802 12.6636 75.9767
1071 1 17.0855 10.0708 77.1969
1099 1 17.3399 19.3452 77.4103
1074 1 25.4211 13.6115 77.6113
1076 1 31.2022 12.5659 79.1258
1012 1 7.60179 16.7114 76.5376
1083 1 11.2751 14.5283 78.678
1085 1 17.0892 14.418 77.3944
779 1 18.8466 6.04887 58.6285
2179 1 19.0889 28.3514 58.6655
843 1 1.77673 5.94805 66.3675
2463 1 33.4252 27.789 76.0791
2173 1 1.54383 28.0774 60.4649
2315 1 8.13728 27.9888 69.2825
991 1 28.3439 5.7575 70.5329
983 1 4.24115 5.87211 75.3804
775 1 6.93494 5.78288 60.6569
2457 1 16.4321 28.2471 77.7226
2111 1 23.9338 28.3142 53.1334
2313 1 2.33758 28.2465 70.6742
2253 1 32.2563 28.2727 60.6459
777 1 12.8765 5.69214 59.344
711 1 24.2561 6.07795 52.9719