ITEM: TIMESTEP
366000
ITEM: NUMBER OF ATOMS
16000
ITEM: BOX BOUNDS pp pp pp
3.0060405872823992e-01 1.0189939594127621e+02
5.8472944190955047e+00 9.6352705580899993e+01
-5.2867396129494963e+00 1.0748673961294456e+02
ITEM: ATOMS id type x y z
73 1 7.50256 6.40205 -2.8432
4 1 10.5127 8.33041 -5.22343
6 1 14.9708 8.16662 -4.00476
8 1 19.5097 8.613 -3.6401
10 1 24.196 8.63954 -2.99209
12 1 27.9232 7.69524 -2.43296
14 1 32.848 8.49267 -2.13702
85 1 3.76912 10.4471 -3.01272
87 1 8.04196 10.2902 -2.63012
18 1 10.5365 12.8742 -5.12901
89 1 12.8074 10.3918 -1.80513
20 1 15.1184 12.5414 -4.60109
22 1 19.6847 13.0925 -3.87619
24 1 24.324 12.5257 -3.24266
28 1 32.9987 12.3846 -2.00597
99 1 3.40362 14.9972 -3.03594
101 1 7.65442 14.8507 -3.12092
34 1 15.2071 17.0747 -4.338
26 1 28.5264 13.398 -1.9259
42 1 33.3665 17.1172 -1.94883
113 1 3.88071 18.9299 -3.39704
115 1 7.54481 19.4091 -2.43572
32 1 10.6909 17.3692 -4.2952
36 1 19.7394 17.6381 -3.93292
38 1 23.9601 17.2433 -3.31572
40 1 28.568 17.168 -2.84061
127 1 3.68482 23.4774 -2.9729
129 1 8.02663 24.1287 -2.88905
46 1 10.4974 22.0097 -5.16488
48 1 15.0826 21.6244 -4.86342
50 1 19.6178 21.4076 -4.07786
52 1 24.1646 22.1798 -3.68032
54 1 28.6419 21.7746 -3.15713
56 1 32.4938 21.3626 -2.46812
69 1 31.1594 23.9107 -5.27618
1471 1 3.06106 28.2187 -3.33321
60 1 10.299 26.3004 -5.25479
62 1 15.3027 26.562 -4.50056
1475 1 12.2023 28.1875 -2.21462
64 1 19.5616 26.0214 -3.67425
66 1 24.2734 26.1519 -3.40738
68 1 28.0931 26.3979 -3.13293
70 1 32.4937 26.36 -2.35933
10878 1 0.534056 8.43545 -0.637216
72 1 5.11745 8.80483 0.593389
74 1 9.60869 8.39617 0.948624
75 1 12.0495 5.9131 -1.43322
76 1 14.5868 8.10016 1.28587
77 1 16.8283 6.21212 -1.35078
10891 1 0.718099 12.486 -0.411191
86 1 5.32425 12.8913 -0.441722
88 1 9.41416 12.959 0.304302
90 1 13.8701 12.8 1.74107
91 1 17.1223 10.9571 -1.28583
93 1 21.5439 10.3573 0.0428169
95 1 26.1501 10.3712 0.901785
97 1 30.263 10.2045 0.367363
103 1 12.1508 15.0834 -1.6174
105 1 16.8385 15.2664 -0.859928
107 1 21.5495 14.4501 -0.70009
109 1 25.1598 15.6391 0.23257
111 1 31.1871 14.9129 0.293499
10904 1 0.462064 17.2867 -0.0125934
100 1 5.02415 17.9832 0.192014
102 1 9.53849 17.593 1.40566
117 1 12.8395 19.4494 -1.36595
119 1 17.4228 19.678 -1.09643
121 1 22.0301 19.1985 -0.603021
123 1 26.3227 19.6322 -0.354738
125 1 30.7258 19.4887 0.429003
10917 1 1.92142 21.4808 -0.651264
114 1 5.46858 22.4511 0.255086
116 1 10.1695 21.9273 0.499656
131 1 12.6757 23.9862 -1.73355
133 1 17.3942 24.1355 -1.00526
135 1 21.1849 24.0516 -0.694238
137 1 25.9594 24.2291 -0.175109
139 1 30.213 24.1186 0.455937
10930 1 0.902394 26.8474 -0.271319
128 1 5.25031 26.3102 0.377437
130 1 9.63402 26.2575 1.08618
132 1 14.1714 26.2423 1.75895
1477 1 16.9369 27.9717 -1.11253
141 1 3.02468 6.07485 3.19587
143 1 6.9348 6.30985 4.269
145 1 11.6919 5.89195 4.10858
78 1 18.7723 8.51095 2.29441
80 1 22.5328 8.09752 2.92619
82 1 27.6952 7.94022 3.71854
84 1 32.1493 7.91327 4.15349
155 1 2.51524 10.7503 3.10676
157 1 7.21787 11.03 3.84302
159 1 11.5084 10.7671 4.15059
92 1 18.1761 12.9202 2.79916
161 1 15.4074 10.4004 4.96108
94 1 22.8062 12.7654 3.21889
96 1 28.4948 12.9435 3.21615
98 1 31.9377 11.9103 4.30196
169 1 2.8163 15.1032 3.16059
171 1 7.4443 14.87 3.00561
173 1 11.8275 15.4765 4.73877
177 1 20.6092 15.2331 5.25068
110 1 28.6144 17.0474 2.92185
183 1 3.05611 19.4686 2.95405
185 1 7.46487 19.817 3.81536
187 1 11.3198 20.1396 4.85426
104 1 14.0979 17.5145 2.04964
106 1 18.5004 17.5895 2.74913
108 1 23.0287 17.4352 2.78736
112 1 32.5493 17.7102 3.25154
197 1 2.83776 24.1648 3.04583
199 1 7.06065 23.8123 3.99344
118 1 14.6776 21.9556 1.85022
201 1 11.759 24.1709 4.53835
120 1 18.6893 21.4022 2.37832
203 1 15.8157 24.399 4.62512
122 1 23.3588 22.1228 2.42354
124 1 27.9457 21.4644 3.69173
126 1 32.571 22.3281 4.03588
1541 1 2.69301 28.0701 3.18875
1543 1 7.49813 28.333 3.81918
134 1 18.6617 26.1249 2.5429
1547 1 16.2426 28.1854 5.10399
136 1 23.3099 26.769 2.60019
138 1 28.2194 26.2312 3.68937
140 1 32.2874 26.1326 4.0715
142 1 4.54516 8.73161 6.89192
144 1 9.51307 8.74747 7.25015
146 1 13.4469 8.14431 7.51176
148 1 18.2558 7.92176 7.84216
151 1 25.2486 6.02721 6.06653
156 1 4.89703 13.0551 6.37679
158 1 9.71053 13.3655 6.92761
160 1 13.386 12.8468 8.34472
162 1 18.0239 12.5538 8.28315
163 1 20.6358 10.1985 5.66414
164 1 22.4626 13.0685 8.76329
165 1 25.4919 10.737 5.59448
167 1 29.5021 10.4615 7.21448
175 1 15.8723 14.9097 5.45642
179 1 25.5515 15.4383 6.08007
181 1 30.2658 14.9181 6.93071
5757 1 34.1659 14.7589 6.15348
170 1 4.84381 17.5731 6.85647
172 1 9.62499 17.3083 7.1463
189 1 15.9855 19.6833 5.89033
176 1 18.1562 17.5774 8.66855
191 1 20.3808 19.8967 5.94714
193 1 24.8781 19.9962 6.39207
195 1 29.7731 19.6633 6.42159
184 1 4.6114 21.6343 6.54778
186 1 9.03703 21.9431 7.47517
188 1 13.7629 21.9274 8.02844
190 1 17.6197 22.2677 8.70128
205 1 20.1923 23.6093 6.14647
207 1 25.1418 23.965 5.8618
209 1 30.332 24.1511 6.62621
10995 1 0.558142 25.904 5.72918
198 1 4.39424 26.4106 6.94756
200 1 8.85641 26.718 7.33316
202 1 13.4287 26.3712 8.19595
204 1 17.9922 26.0828 8.57545
1551 1 25.0668 28.4075 6.01477
212 1 3.95768 8.1069 12.2952
211 1 1.83583 6.39722 9.03189
213 1 6.50306 6.28839 10.0061
215 1 11.113 5.93538 10.3938
217 1 15.6811 6.2159 11.308
219 1 20.1977 6.49426 11.6002
150 1 22.7045 8.46739 8.82073
152 1 26.9646 7.79063 9.07068
154 1 31.545 7.7949 10.2835
225 1 2.2609 10.6467 9.70659
227 1 6.92745 11.2944 10.1681
229 1 10.8855 10.7244 10.5439
231 1 15.6002 10.2741 10.9022
233 1 20.2158 10.6746 11.1169
166 1 26.8778 13.1473 9.05551
168 1 31.4232 12.3743 10.5742
239 1 2.18618 14.7375 9.66282
241 1 6.74993 15.2248 10.1265
243 1 10.6661 15.3723 11.2339
245 1 15.7622 15.1309 11.4689
247 1 20.1108 15.0726 11.9923
249 1 24.8786 15.2745 11.7481
253 1 2.01084 19.2896 9.74079
255 1 6.50514 19.7758 10.4422
257 1 10.9812 19.8863 11.2868
174 1 13.4262 17.1648 8.9326
259 1 15.7686 19.4357 11.512
178 1 22.6788 17.3469 8.97976
261 1 20.5306 19.6993 12.18
180 1 27.9687 17.6832 9.19143
182 1 31.8598 18.2244 9.94542
267 1 2.2295 23.9143 9.43231
269 1 6.81907 24.4314 10.4262
271 1 11.5343 23.7541 11.1725
273 1 15.2815 23.8581 11.7447
275 1 20.0933 24.2842 12.1789
192 1 23.3455 22.0787 9.18502
194 1 27.5802 22.1659 9.58054
196 1 32.0685 22.3447 9.72423
1611 1 2.14516 28.3266 9.09514
268 1 4.32264 26.9051 12.3059
1617 1 15.4606 28.2335 11.3059
206 1 22.4919 26.1591 9.39704
1619 1 20.3065 28.3849 11.7349
208 1 27.1616 26.791 9.8012
210 1 31.9165 26.7983 10.3134
281 1 1.66294 6.22464 15.4654
283 1 6.04792 6.06132 15.8353
214 1 8.4789 8.5241 13.67
216 1 12.9211 8.10723 13.8311
218 1 17.3657 8.08598 14.4067
220 1 21.8456 8.34776 15.3208
222 1 26.482 8.43907 15.756
223 1 29.0725 5.90942 12.7746
5796 1 33.4455 5.9991 13.9655
226 1 4.247 12.9901 13.2904
228 1 8.70936 12.4931 14.2262
230 1 13.4185 12.8978 13.9497
232 1 17.7149 11.9947 13.8313
234 1 22.0384 13.1029 14.934
235 1 24.8649 10.3411 12.4124
237 1 28.7509 10.4252 13.2709
236 1 26.7795 13.1095 15.6019
5809 1 33.5297 10.4708 13.7845
309 1 1.55206 15.6499 15.6998
251 1 29.3876 14.9665 12.5299
5822 1 33.5647 14.7911 13.9751
323 1 1.33946 19.6173 15.8446
240 1 4.15287 17.5372 12.5406
242 1 8.19523 17.5975 13.6275
244 1 13.2437 17.3597 14.741
246 1 17.677 18.0034 14.6625
248 1 22.3298 17.7163 15.1605
263 1 25.2123 19.3543 12.4532
250 1 26.5862 17.1916 15.3751
265 1 29.01 20.5575 12.9711
252 1 31.2541 17.6345 15.8283
5835 1 33.6255 19.2938 13.3919
254 1 4.00398 22.2263 13.4133
256 1 8.41411 22.2622 14.2711
258 1 13.0318 21.5525 14.7529
260 1 17.7689 21.6684 15.0156
262 1 22.0522 21.6574 15.2801
277 1 24.5523 23.9586 13.0364
279 1 29.1833 24.257 12.975
5848 1 33.781 23.8136 13.6151
270 1 8.82948 26.2074 13.7734
272 1 12.7192 27.1579 14.1792
274 1 17.7411 26.0761 14.8223
276 1 22.3977 25.9791 15.4563
7096 1 33.8027 28.3274 13.6904
282 1 3.32743 8.18748 19.3284
285 1 10.7278 6.19894 16.9332
287 1 15.4374 6.32915 17.4748
289 1 19.6314 6.25483 18.1863
291 1 24.1973 6.1705 18.6468
293 1 28.8155 6.2182 19.2679
224 1 31.1829 8.23773 16.0227
295 1 1.25387 10.8278 16.0257
297 1 5.79321 10.5942 16.5557
299 1 10.4439 10.1634 17.3399
301 1 15.0401 10.8193 17.3522
303 1 18.9048 10.8313 17.6624
305 1 23.3008 10.518 18.6381
238 1 30.4387 12.8072 16.0044
5874 1 32.5976 10.8578 18.8194
311 1 6.22288 14.9688 16.2313
313 1 10.5111 15.1565 16.847
315 1 15.043 15.22 17.6812
317 1 19.7626 15.3254 17.7878
319 1 23.5157 14.6973 18.1624
321 1 28.6708 15.3112 19.1885
310 1 3.73091 17.5849 19.2342
325 1 5.76618 19.3214 16.367
327 1 10.2665 19.5204 17.6155
329 1 15.9065 19.6931 18.1923
331 1 19.8481 19.3727 18.7703
333 1 24.5046 19.6452 18.8036
335 1 28.2995 19.1309 19.3466
337 1 1.43534 24.1617 15.9285
324 1 3.48518 22.079 19.0153
339 1 5.59824 23.9776 16.2631
341 1 10.4182 24.1818 17.2853
343 1 15.085 24.0074 17.9827
345 1 19.6912 24.0479 18.4944
347 1 23.945 23.5486 18.7917
264 1 27.1405 21.526 16.145
266 1 31.6859 22.4087 16.4101
338 1 3.42032 26.8064 18.7269
278 1 26.9947 26.4141 16.2996
280 1 31.5556 26.2942 16.94
351 1 0.510099 5.86037 22.1226
353 1 5.85879 5.95677 22.3739
284 1 8.03059 8.58962 20.2259
286 1 12.5801 8.10383 20.9042
288 1 16.9556 8.04807 20.9709
290 1 21.1241 7.63537 21.8575
292 1 26.0337 8.11854 21.3939
294 1 30.3907 8.64171 22.4952
5861 1 33.5162 6.43405 19.763
296 1 3.495 12.91 19.5807
365 1 0.963915 10.5101 21.4507
367 1 5.60283 10.6329 22.6663
298 1 8.16802 12.8297 19.9984
300 1 12.6285 12.3685 19.7999
302 1 17.2219 12.8686 20.8883
304 1 21.3899 13.1349 22.1048
306 1 25.5065 12.7681 21.8162
308 1 30.2956 12.5475 22.5447
307 1 28.1253 10.6699 19.403
379 1 1.22071 14.6544 21.8378
314 1 12.8736 17.0461 20.6311
320 1 25.7231 16.7908 22.5326
5887 1 32.8833 15.2546 20.4468
393 1 1.20361 20.1007 21.9601
312 1 8.28762 17.3248 19.8104
316 1 17.322 17.5118 21.0753
318 1 21.8017 17.3292 21.4958
322 1 30.361 17.2527 22.6133
5900 1 32.9648 19.3331 19.8756
409 1 5.3177 24.6624 22.5559
326 1 8.02735 22.3229 20.7482
328 1 12.6674 21.7243 20.6889
330 1 16.7941 21.8241 21.3395
332 1 21.9173 21.9047 21.8366
334 1 26.3489 21.178 21.9562
336 1 30.297 21.4138 22.5783
349 1 28.4715 23.6468 19.6406
5913 1 32.8096 24.1618 20.6511
340 1 7.65062 26.558 19.8912
342 1 12.3154 26.5479 20.6059
344 1 17.0699 26.1761 21.4097
346 1 21.3904 26.5631 22.1058
348 1 25.866 25.9619 22.4083
1693 1 28.478 28.1266 19.4182
7161 1 32.8675 28.2587 19.9199
350 1 30.5883 26.2166 22.6628
352 1 2.96177 7.7689 25.1377
354 1 7.53446 8.25176 26.2177
361 1 23.9807 6.09539 24.9329
363 1 28.5153 6.0237 25.8388
5926 1 32.5814 5.90015 25.6158
366 1 2.64184 12.3535 24.5742
368 1 7.43181 12.7609 26.1301
369 1 10.2259 10.1765 24.1818
371 1 14.8765 10.1225 23.6671
373 1 19.3268 10.3513 24.42
375 1 23.8895 10.1692 24.8867
377 1 27.7027 10.3048 25.127
5939 1 32.5889 10.5672 26.071
381 1 5.43436 15.5981 22.9819
383 1 10.0375 14.8952 23.0044
385 1 14.6887 14.7421 23.1459
387 1 19.3159 14.9475 24.5969
389 1 23.7921 14.764 24.982
391 1 28.1886 14.5902 25.0767
5952 1 32.2402 14.5537 26.1185
380 1 3.45541 17.4669 25.7329
395 1 4.88137 19.9456 23.0582
382 1 7.90361 17.6816 26.0361
397 1 10.1831 19.6662 23.2547
399 1 14.9523 19.3544 24.0389
401 1 19.6447 19.4697 24.5402
403 1 23.5722 19.119 25.3377
405 1 27.8349 19.3163 25.8702
5965 1 32.0162 19.4186 26.2454
394 1 3.19742 22.2652 25.5872
411 1 10.0582 24.5117 23.2338
413 1 14.5628 23.9628 24.7288
415 1 19.2709 24.2165 24.3687
417 1 23.9128 24.1766 25.2401
419 1 27.8571 23.844 25.6324
408 1 2.9891 26.251 25.371
410 1 7.54057 26.4282 25.6886
1763 1 28.2893 28.4031 25.9864
425 1 9.88694 5.98812 29.5019
356 1 12.8347 7.40772 26.972
358 1 16.5386 8.21784 27.2416
360 1 21.2587 7.89868 27.8444
362 1 25.5604 8.42159 28.6605
364 1 30.0611 8.51673 28.7508
437 1 4.87785 9.94333 28.7093
439 1 9.48339 10.2768 29.3776
370 1 12.0742 12.6126 26.4676
441 1 14.2049 10.0002 29.7418
372 1 16.4839 13.1914 27.1482
374 1 21.1969 12.3301 28.0719
376 1 25.7343 12.8067 28.2209
378 1 30.6377 12.9591 29.5731
449 1 1.06518 14.822 27.7492
451 1 5.5388 14.6013 28.917
453 1 9.60275 15.1416 29.6328
384 1 12.421 17.0107 26.4357
386 1 16.4571 17.0566 26.8278
388 1 21.1296 16.9802 28.305
5953 1 34.1157 17.0486 29.7415
463 1 0.623769 19.2822 28.4436
465 1 5.39232 19.6866 29.3624
467 1 10.2232 19.777 29.4935
390 1 25.1733 17.4098 28.7416
392 1 29.7294 17.2803 28.9933
396 1 7.81279 21.8061 26.5478
479 1 4.65195 24.2477 28.7376
481 1 8.95426 24.2301 29.5758
398 1 12.3115 21.7866 27.2465
400 1 16.8202 21.7463 27.5295
402 1 20.7704 21.6812 28.1754
404 1 25.086 21.8354 28.9523
406 1 29.5841 21.8747 29.4158
5978 1 32.7834 23.8844 26.6708
1823 1 5.20797 28.1138 28.4732
412 1 12.1198 27.1206 27.0912
414 1 16.8073 26.2646 27.4203
416 1 20.9081 26.3506 28.051
418 1 25.6706 26.0443 28.3063
420 1 30.365 26.3938 29.4008
7226 1 32.5193 28.2331 26.5247
422 1 2.68579 8.2995 31.5113
424 1 6.79843 7.81429 32.5526
426 1 11.2197 7.63881 32.9714
443 1 18.8085 9.30145 30.5326
5927 1 34.0266 8.36317 30.0951
5991 1 32.3667 6.14111 32.942
436 1 2.35547 12.3798 31.5113
438 1 7.09052 12.3841 31.8937
440 1 11.724 12.4664 32.9498
442 1 16.5208 12.3989 33.1986
445 1 23.1604 10.6745 31.986
447 1 27.6705 10.2905 31.7094
6004 1 32.3021 10.6672 33.2104
454 1 11.4878 17.0818 33.0505
455 1 13.9116 14.5479 30.5107
457 1 18.6136 15.1602 30.2101
459 1 22.6601 14.343 32.0212
461 1 27.0422 14.7927 31.9239
6017 1 31.8214 15.037 32.926
450 1 1.9909 17.2024 31.4664
452 1 7.54654 17.1738 32.3853
469 1 14.0659 19.2509 30.3472
471 1 18.3825 18.9668 31.1305
473 1 22.976 19.1041 31.6942
475 1 27.6048 19.1548 31.8708
6030 1 31.8347 19.7982 32.8029
464 1 2.68054 21.732 31.2294
466 1 7.15145 21.33 32.6678
468 1 11.9556 21.781 33.4611
483 1 14.0724 24.048 30.3385
485 1 18.5169 23.9786 30.9712
487 1 23.1039 24.1508 31.3707
489 1 27.816 24.525 31.7114
478 1 2.81634 26.1901 31.9596
480 1 6.83462 26.0012 32.3546
482 1 11.239 26.5837 33.0504
484 1 15.8213 26.523 33.4692
1831 1 23.1679 28.0207 31.0147
428 1 15.6172 7.92115 33.6559
430 1 20.7487 7.99408 34.2839
432 1 25.3021 8.18578 34.5267
434 1 29.927 8.17213 35.1015
507 1 4.16116 11.0004 35.1933
509 1 8.78867 9.80326 35.5305
511 1 13.2725 9.99085 36.3117
444 1 20.7022 12.5605 34.8745
446 1 25.3343 12.3499 34.9727
448 1 29.4786 12.807 35.378
6069 1 33.396 10.5216 36.5255
521 1 4.26461 15.7293 35.5063
523 1 8.70748 14.5606 35.8106
525 1 13.7519 14.9127 36.0955
456 1 16.0787 17.1037 33.7605
458 1 19.979 17.1357 34.2508
460 1 24.5098 17.0449 34.7532
462 1 28.9516 17.1463 35.5506
535 1 4.02773 19.6856 35.0743
537 1 9.70317 19.2442 35.998
539 1 13.5849 19.5714 36.7493
549 1 4.52292 23.6229 35.1941
551 1 9.07674 24.1427 36.3291
553 1 13.2477 23.992 36.648
470 1 16.0719 21.8198 34.2031
555 1 17.3545 24.3369 36.8009
472 1 20.444 21.6225 34.3391
474 1 24.9866 21.6659 34.325
476 1 29.435 21.7477 35.3308
6043 1 32.1403 24.4039 33.7331
1893 1 4.46431 28.4047 35.489
486 1 20.1387 25.9696 34.052
488 1 25.2763 25.952 34.6242
490 1 29.6556 26.2369 35.7415
492 1 1.5095 7.87461 37.6224
494 1 6.14538 7.7422 38.0154
496 1 10.6087 7.89927 39.3198
498 1 15.5651 8.04452 40.0449
500 1 20.0531 7.76108 40.2089
515 1 22.7174 9.51629 37.8241
503 1 27.9073 5.89834 37.8401
6056 1 33.4229 6.25856 37.1699
504 1 31.5724 8.40423 39.6033
506 1 1.80831 12.5104 37.8481
508 1 6.37979 12.598 38.4671
510 1 11.0735 12.1233 38.8733
512 1 15.2544 12.7129 40.1108
513 1 17.7603 9.90173 37.2103
517 1 27.1906 9.92477 38.3142
518 1 30.3746 12.7608 39.8748
524 1 10.9922 16.4573 38.8528
527 1 17.5812 14.5836 37.197
526 1 15.3589 16.8813 40.147
529 1 22.3677 14.9878 37.5392
528 1 19.6113 16.8188 39.9418
531 1 26.8543 15.4512 38.2809
6082 1 33.1264 15.2377 37.2187
532 1 30.5283 16.8514 39.7734
520 1 1.78711 17.1868 38.3114
522 1 6.30846 17.2302 38.4813
541 1 18.1087 19.7528 37.7124
543 1 22.9062 18.9769 37.5993
545 1 26.7395 19.2327 38.1518
6095 1 33.5302 19.408 37.1397
534 1 2.16531 21.7025 37.883
536 1 6.64935 21.8059 38.3558
538 1 11.0092 21.6166 39.9389
540 1 15.9267 22.0223 39.7977
557 1 22.3464 23.9109 37.685
559 1 26.74 23.8205 38.4884
6108 1 33.3413 23.6142 37.343
546 1 30.5145 21.4557 39.6365
548 1 1.34184 25.8898 37.8964
550 1 6.63196 25.8131 38.7074
552 1 10.4833 26.2496 39.4331
554 1 15.4117 26.3654 39.5989
556 1 20.1581 26.2489 39.9099
1901 1 22.684 28.3034 37.1972
1903 1 26.3173 28.0739 38.5195
560 1 30.4258 26.0737 39.9357
7356 1 32.8883 28.4281 37.3371
565 1 7.4777 5.97071 41.3056
569 1 17.6429 6.00306 43.0129
502 1 24.6949 8.36127 40.9354
573 1 28.4765 6.21775 42.4891
577 1 3.62918 9.82953 41.2169
576 1 0.902772 12.5551 43.9223
579 1 8.02139 9.82825 41.9115
581 1 12.4326 10.049 42.8972
583 1 17.2063 9.90677 43.5049
514 1 20.0464 12.2405 40.6432
516 1 24.511 12.4969 41.1008
587 1 28.9861 10.0131 42.5337
588 1 32.2987 12.7939 43.9683
591 1 3.40786 14.8878 41.3141
593 1 8.14118 14.5395 42.0473
595 1 11.8193 14.6498 42.3664
597 1 16.661 14.5001 43.0749
599 1 21.2517 14.5953 43.7918
530 1 24.6362 16.6103 41.4032
601 1 27.9746 14.5609 42.6733
605 1 4.46666 19.1698 41.7856
607 1 8.53821 19.4358 41.9125
609 1 12.9546 19.0853 42.1253
611 1 17.5821 19.1228 43.2639
613 1 22.0557 19.0573 43.3054
615 1 27.9637 18.7292 43.5977
604 1 1.49381 21.5779 43.7039
619 1 4.07352 23.7865 41.6091
621 1 8.55566 24.1315 42.1287
623 1 13.4046 23.8965 42.4965
625 1 17.5193 23.7976 43.0463
542 1 20.1212 21.5001 40.943
544 1 24.6562 21.6982 41.1138
629 1 28.4202 23.2662 42.9377
1963 1 3.46901 27.9382 41.3628
1967 1 12.8179 28.3832 42.6803
1969 1 17.5416 28.1197 43.1208
1971 1 21.6319 28.4315 43.7009
558 1 24.0497 25.7042 40.7599
1973 1 27.633 27.857 43.0625
562 1 0.976932 8.58282 44.0699
564 1 5.04872 7.94106 44.7552
566 1 10.285 8.16615 45.6008
568 1 14.9221 8.03003 46.012
570 1 19.6647 7.79936 46.8206
572 1 26.132 7.66736 45.3479
643 1 29.378 6.03217 46.8282
574 1 32.3488 8.54323 44.2805
647 1 3.28744 10.2561 47.3562
578 1 5.64292 12.2091 44.6637
580 1 10.2954 12.6436 45.1309
582 1 14.6049 11.9414 45.1793
584 1 18.8319 12.1978 46.4661
585 1 21.8274 10.402 44.2345
586 1 25.2084 13.2061 45.6043
657 1 29.2808 10.5804 47.0777
590 1 1.07031 16.9386 44.0776
592 1 5.80825 16.7188 44.6884
596 1 14.4324 16.6647 45.7896
598 1 18.8749 16.5065 46.8587
600 1 25.1433 17.0785 45.6563
671 1 29.1585 15.1763 46.6581
602 1 31.8769 16.8896 44.2336
594 1 9.99276 17.2089 45.5659
685 1 29.1251 19.522 46.9447
606 1 5.87657 21.2326 45.1518
608 1 10.6724 21.654 45.4981
610 1 14.5089 21.3915 45.8271
612 1 19.0357 21.1047 46.3741
627 1 21.9913 23.6807 44.538
614 1 25.278 21.4904 45.8367
699 1 29.1033 23.534 47.0321
616 1 31.6791 21.4827 44.1951
618 1 0.779188 25.9679 44.3546
620 1 5.35109 25.9498 45.0457
622 1 9.9752 26.2598 45.6267
624 1 14.6523 25.8982 46.2205
626 1 19.3619 25.768 46.84
628 1 25.1445 25.5898 45.4096
2043 1 28.7433 28.1718 46.9599
630 1 31.681 26.0306 44.9095
632 1 0.366034 7.88105 50.1086
634 1 4.9244 7.8581 50.8309
635 1 7.45618 5.96483 48.2464
637 1 12.257 6.05976 48.8344
642 1 26.4366 8.11085 50.0292
644 1 33.1471 8.03445 48.7257
646 1 0.361507 12.682 50.2825
649 1 7.98405 10.3459 48.2971
651 1 12.2205 10.6735 48.8642
653 1 16.6307 9.82746 49.8494
654 1 20.5938 12.2433 50.9299
655 1 23.4732 10.1819 48.2235
656 1 26.1468 12.274 50.1394
658 1 32.61 12.6248 48.7372
660 1 0.372722 17.132 50.6684
661 1 2.90489 14.5857 47.7106
663 1 7.58563 14.4188 48.2732
665 1 12.3265 14.8762 48.9145
667 1 17.0049 14.3774 49.6203
669 1 23.0024 14.9313 48.17
670 1 26.7377 16.846 49.4268
675 1 2.74287 18.6574 47.593
677 1 8.09702 19.0967 48.6461
679 1 12.357 18.8371 48.9339
681 1 16.8217 19.0829 49.0664
683 1 22.5322 18.7689 48.5799
672 1 32.8066 17.3201 48.806
674 1 1.15408 21.5925 51.0577
689 1 2.87816 23.4846 47.838
676 1 5.08843 20.9933 50.9784
691 1 7.69943 23.9419 48.4551
693 1 11.8365 23.48 49.012
695 1 16.4546 23.7047 49.3286
684 1 25.9445 21.1604 50.5609
697 1 23.1689 23.792 49.1201
686 1 33.0224 21.3162 48.7611
688 1 0.780019 25.5592 50.6901
2033 1 3.23005 28.2355 47.6045
2035 1 7.72024 28.2737 48.2393
690 1 4.97316 26.0942 50.9638
2037 1 12.4687 28.2451 48.9346
2039 1 16.8922 28.3086 49.238
2041 1 22.816 28.3721 48.3804
696 1 20.6533 26.1622 51.0104
698 1 26.4524 25.7724 50.3048
700 1 32.8126 25.8601 48.6881
636 1 9.56795 8.24036 51.9146
638 1 14.084 7.92316 52.8489
640 1 20.415 7.54089 51.5504
712 1 27.6198 7.92909 53.7242
713 1 30.137 5.89996 51.5622
714 1 33.9718 7.94974 53.1258
717 1 2.1063 10.2984 53.7179
648 1 5.10254 12.4817 51.2627
650 1 9.85282 12.4669 51.4555
652 1 13.841 12.598 52.5708
725 1 23.7476 10.4396 52.8475
727 1 30.0094 9.90941 51.7088
731 1 1.61163 14.8098 54.2412
733 1 6.86115 14.0739 54.5082
662 1 4.78339 17.0372 51.3178
664 1 9.46122 17.1484 51.8935
666 1 14.6131 16.6541 52.6852
737 1 18.1505 14.6744 54.0729
668 1 20.1389 16.8375 51.2125
739 1 24.4209 15.2032 52.8139
740 1 27.425 16.8976 54.1075
741 1 29.9755 14.5865 51.327
742 1 33.495 17.0909 53.4543
745 1 2.70724 19.1913 54.1804
747 1 7.26513 18.8967 54.6139
751 1 17.3892 19.3095 53.7488
753 1 22.9399 19.7404 52.4351
755 1 30.0765 19.2536 51.2055
759 1 2.42734 23.2661 54.1183
761 1 6.79521 23.5863 54.372
678 1 10.0427 21.8 51.9734
680 1 14.1544 21.0886 52.4154
765 1 17.9166 23.8248 53.8565
682 1 20.1903 21.8416 51.1497
767 1 24.1443 23.7807 52.9362
769 1 30.1697 23.9848 51.594
756 1 33.8188 21.6425 53.0777
2103 1 2.60458 27.9565 54.3005
2105 1 7.346 28.3629 53.9761
692 1 9.60803 25.785 51.5288
694 1 14.272 25.6835 52.1433
2107 1 11.6322 27.8321 54.3425
2109 1 17.6239 28.4468 53.7825
2111 1 23.913 28.3165 52.9618
2113 1 30.2719 28.3851 51.3011
770 1 33.7812 26.1154 53.285
704 1 4.3195 8.13473 57.2793
706 1 9.23375 7.29915 57.9711
708 1 15.326 8.18119 56.7225
779 1 18.9758 5.85647 58.1387
710 1 21.7907 7.40407 55.6957
781 1 25.7271 6.36858 57.1591
783 1 31.4016 6.49778 56.1146
719 1 6.53425 10.0722 54.7749
718 1 4.17609 12.1812 57.8336
720 1 8.6973 11.9271 58.1078
721 1 11.2115 9.66763 55.1988
723 1 18.1992 10.3041 54.6378
722 1 15.4119 12.5889 56.7325
724 1 21.9758 12.4907 55.4221
795 1 25.2977 10.2689 56.8799
726 1 27.9096 12.5109 54.6521
797 1 31.5305 10.4116 56.0373
732 1 4.47364 16.6763 57.5024
734 1 9.08897 16.628 57.7325
735 1 11.1946 14.5885 55.3169
736 1 15.3161 16.924 56.5671
809 1 25.188 14.9985 56.7848
811 1 30.5675 15.0811 55.7736
749 1 11.8527 18.9873 55.2686
738 1 21.2804 17.2241 55.6881
823 1 24.9714 19.8142 56.7731
825 1 31.7222 19.4636 56.411
746 1 4.20212 21.1993 57.8129
748 1 9.29862 21.2432 57.8835
763 1 11.4784 23.4868 55.3248
750 1 15.6215 21.2223 56.7956
752 1 21.1726 21.0893 55.5343
837 1 24.6907 23.6905 57.3794
754 1 27.7958 21.4599 54.6665
839 1 31.3508 24.1437 56.243
760 1 4.97524 25.9945 56.8638
762 1 9.0764 25.7721 57.7209
764 1 14.9005 25.901 56.7087
766 1 20.948 26.0985 55.8125
2181 1 25.2026 28.2444 57.3987
768 1 27.5964 26.1681 54.6283
773 1 2.19613 6.27646 59.9749
777 1 13.1044 6.19291 59.4616
778 1 16.6758 8.76434 61.1139
780 1 22.5845 8.00913 60.3419
851 1 26.4195 6.17772 61.5313
782 1 28.8102 8.43208 58.9601
853 1 32.4821 5.85985 60.507
787 1 1.54002 10.2665 60.3254
789 1 6.29154 9.62429 61.0783
791 1 12.7848 10.447 59.3747
793 1 19.0833 10.3337 58.3604
792 1 16.2434 13.32 60.5056
794 1 22.7851 12.7393 60.041
796 1 28.7797 12.8728 58.8142
867 1 32.5023 10.5597 60.7646
801 1 2.00237 15.0161 60.854
803 1 6.66945 15.0841 60.5032
805 1 12.6187 14.433 59.506
807 1 19.1196 14.9302 58.3785
879 1 26.2592 15.6216 61.4167
881 1 32.4388 15.3302 60.9972
815 1 1.37861 19.0567 60.7328
817 1 6.63594 18.9439 60.8824
819 1 12.5384 19.3102 59.6047
806 1 16.7512 17.3274 61.0322
821 1 19.2191 18.9266 58.334
808 1 23.0929 17.3954 60.1847
893 1 25.9342 19.8377 61.203
810 1 28.5161 17.4031 58.9389
895 1 32.5343 19.9135 60.5019
829 1 2.2099 23.502 60.3018
831 1 6.11064 24.1793 60.24
833 1 12.978 24.0241 59.5482
820 1 16.4475 21.8071 60.7852
835 1 19.3781 23.6828 58.754
822 1 22.5401 21.9323 59.9974
824 1 28.9411 22.1818 58.563
909 1 32.7088 23.8727 60.5613
2173 1 2.0258 27.9361 59.8003
2175 1 6.56212 28.0122 60.2906
2177 1 12.8957 28.3592 59.2286
834 1 16.2655 26.0075 61.2402
2179 1 18.715 28.2034 58.4333
836 1 22.7691 26.5493 59.9256
838 1 29.1789 26.637 59.6223
774 1 3.91186 7.95766 63.8124
776 1 10.0936 8.33146 62.0475
847 1 13.8222 6.40217 63.9466
849 1 19.9745 6.23135 62.6081
850 1 23.8509 8.20722 64.3669
852 1 30.0505 8.63884 63.2819
923 1 33.646 6.31895 64.9864
788 1 4.14373 12.6514 63.067
790 1 10.2334 13.0179 62.3576
861 1 14.4803 10.7447 64.1279
863 1 20.1703 9.98554 62.8564
865 1 26.3041 10.5419 62.0606
864 1 23.8033 12.9149 64.4489
866 1 29.9963 12.9987 62.9939
873 1 8.20595 14.9981 64.8704
875 1 13.9743 15.4719 63.7298
877 1 20.3119 15.0123 63.1923
951 1 33.5038 15.4235 65.0209
802 1 4.37761 17.4881 63.432
804 1 10.0369 17.5879 62.184
889 1 13.0689 19.4357 63.6839
876 1 17.5223 17.3299 64.8486
891 1 20.4228 19.5046 63.3695
878 1 23.7685 17.648 64.6373
880 1 29.3549 17.6605 62.7958
1033 1 33.5397 20.0947 65.1059
816 1 3.83427 21.563 63.7389
901 1 7.37967 23.9964 64.7306
818 1 10.1126 21.9245 62.5353
903 1 14.1279 24.0342 64.0979
905 1 20.2821 24.3219 63.2637
907 1 25.9555 24.3271 61.917
892 1 23.9753 22.1413 64.5394
894 1 29.6311 21.7673 63.438
964 1 33.4616 24.2267 64.9602
830 1 3.78121 26.4952 63.637
832 1 10.3204 26.2874 62.4033
2247 1 13.4742 27.7827 64.3311
2249 1 20.4057 28.3016 62.6705
906 1 23.6297 26.663 64.877
908 1 30.3635 26.5965 63.7723
844 1 4.99355 7.54444 67.6582
846 1 11.5326 8.38305 66.6403
917 1 14.9488 6.05377 68.4352
848 1 17.8568 7.82094 65.5286
919 1 21.1572 5.91505 67.0903
922 1 30.87 8.17806 67.9526
857 1 1.64124 10.4713 66.7673
859 1 7.55172 10.4085 65.2021
858 1 4.96247 12.2822 67.9294
860 1 11.4834 13.1639 66.9677
862 1 18.5386 12.6236 65.7023
931 1 15.3881 10.4945 68.0357
933 1 21.1273 10.2696 67.5051
935 1 27.1712 10.4038 66.8261
937 1 33.3994 10.9209 65.387
936 1 31.0927 12.8265 67.6009
871 1 1.2925 14.528 66.3034
872 1 5.51985 16.0166 68.1108
945 1 15.6652 14.9746 68.022
947 1 22.1989 15.0436 67.4293
949 1 27.4766 15.1865 65.9229
885 1 2.12092 19.0614 67.0918
887 1 7.56568 19.4718 65.6959
874 1 11.5578 17.2689 67.4341
959 1 14.9156 19.5667 68.0668
961 1 20.7737 19.6409 67.4855
963 1 27.1872 19.0799 66.8715
950 1 31.1828 17.2718 68.2938
899 1 1.96804 23.6356 66.9956
886 1 5.39591 21.4359 68.0687
888 1 11.1916 22.0282 66.6414
890 1 17.0079 21.6865 65.5859
975 1 21.3739 24.3474 67.1025
962 1 24.6554 22.2499 68.2567
1035 1 30.6353 22.2109 67.6483
2243 1 1.36354 28.2581 66.2424
900 1 5.03853 26.16 68.148
902 1 11.0149 25.7878 67.0655
2317 1 14.572 27.8621 68.2631
904 1 17.5022 25.9911 65.7834
977 1 27.4666 24.9464 65.8078
978 1 31.0821 26.5557 68.1649
914 1 6.17819 7.64724 72.0751
915 1 8.63548 5.99724 69.6098
916 1 12.6347 8.18364 71.0071
918 1 18.7951 7.93479 70.1629
920 1 25.0087 7.9893 69.0299
991 1 28.6943 6.17389 70.6561
927 1 2.45168 9.8517 70.9405
929 1 9.03577 10.5873 69.9498
930 1 13.3428 11.8296 71.0091
932 1 18.6101 12.7376 70.3925
1003 1 22.121 10.3282 72.0765
934 1 24.6563 12.7147 69.1283
1005 1 28.3837 10.6837 71.0798
941 1 2.04874 14.5066 70.9487
943 1 8.65563 14.4439 69.4926
944 1 12.9836 16.1809 70.862
946 1 18.8671 17.0864 70.6964
1017 1 21.9299 15.6168 71.9602
1019 1 27.7889 14.5075 70.1864
1006 1 31.8841 13.3999 72.1153
955 1 2.87602 20.1075 71.2256
957 1 7.87562 18.9237 69.5597
958 1 11.9395 20.9267 71.0611
1031 1 22.5335 19.7738 71.6788
948 1 24.3975 17.437 69.237
1020 1 27.6672 18.6912 70.9351
1022 1 31.1615 17.2063 72.1838
969 1 2.53942 24.0773 71.6466
971 1 8.21475 23.3809 69.8241
973 1 14.9007 24.0472 68.9324
960 1 18.2646 21.0056 70.0093
1045 1 22.6666 23.623 72.0839
1047 1 28.2031 24.2083 70.2755
2315 1 8.84268 28.1189 69.5074
972 1 12.0839 25.3205 71.4754
974 1 19.0068 25.665 70.1869
976 1 25.0806 25.9455 68.8513
912 1 0.392899 7.60746 73.5821
985 1 9.90227 6.11258 74.089
986 1 13.2021 7.6759 75.5956
988 1 19.9905 8.07773 74.3798
990 1 26.0202 8.33409 73.3092
1061 1 29.298 6.16599 74.4412
992 1 32.0767 7.82515 72.551
926 1 0.320428 12.5662 74.0362
997 1 3.82771 9.9747 75.4983
928 1 6.10514 12.1863 72.2923
999 1 10.2223 10.9374 74.159
1000 1 14.0946 12.3056 75.4928
1001 1 16.373 9.9101 72.9988
1002 1 19.7283 12.7665 75.093
1004 1 25.6028 12.9607 73.2056
1075 1 30.0013 10.6101 75.5125
1077 1 33.8233 10.6241 75.258
1011 1 3.50581 14.5125 75.5228
942 1 6.07123 16.8297 72.4416
1013 1 10.436 14.9092 74.3258
1014 1 13.5512 17.002 75.4667
1015 1 16.4356 14.705 72.8017
1089 1 28.9331 14.5721 74.9446
1091 1 34.1269 14.7724 75.6727
940 1 0.724518 17.3304 74.3698
1025 1 4.33118 19.4839 75.2554
1027 1 9.71405 19.2556 73.9639
1029 1 15.5648 19.7377 72.6089
1016 1 19.9126 17.2491 74.6832
1018 1 25.8921 17.2365 73.7559
1103 1 29.3606 19.2398 75.1262
1105 1 33.9972 19.2787 75.6664
1039 1 3.60808 23.5093 75.3705
956 1 6.83516 21.387 72.9666
1041 1 10.6711 23.0822 73.8849
1043 1 16.3304 23.6077 73.3633
1030 1 20.2607 21.6132 74.3653
1032 1 25.9357 21.919 73.4376
1117 1 29.5827 23.9445 75.3639
1034 1 31.2929 21.2998 72.2864
970 1 5.60022 26.4431 72.4181
2385 1 9.77587 27.7942 73.9402
1042 1 13.5511 26.0115 75.6004
2387 1 15.8698 27.8412 73.2395
1044 1 19.8256 26.3426 74.6002
1046 1 25.9601 26.4297 73.5248
2461 1 29.5284 28.155 75.0444
1048 1 31.7904 25.9466 72.5376
982 1 1.55099 8.21775 78.5275
984 1 7.78449 8.26157 76.7027
1055 1 11.0637 6.70798 78.5433
1058 1 20.9299 8.33442 78.8456
1059 1 23.2974 5.92921 76.0951
1060 1 27.0838 7.67562 78.0603
1062 1 31.5881 7.89499 78.1806
996 1 0.971769 12.358 78.5908
998 1 7.39694 12.3538 76.7433
1069 1 11.2448 10.5881 78.807
1071 1 17.5864 9.97759 77.581
1072 1 21.4053 13.013 78.9088
1073 1 23.4058 10.2683 76.5427
1074 1 26.9666 12.4473 78.2969
1076 1 31.6214 12.8923 78.8523
1012 1 7.38343 17.0084 76.8755
1083 1 11.0909 15.008 78.2625
1085 1 17.1447 14.5546 77.4448
1086 1 20.863 16.9297 79.0737
1087 1 23.3333 15.477 76.4889
1090 1 31.265 16.7184 78.6412
1010 1 1.63893 17.233 78.4535
1097 1 11.0289 19.6281 78.601
1099 1 17.6738 19.2786 77.3781
1101 1 23.4214 20.1794 75.9472
1088 1 26.6806 17.3112 77.9181
1024 1 1.18689 21.276 78.1069
1026 1 7.35288 21.6397 77.1207
1111 1 10.8944 23.9974 78.462
1028 1 13.5657 21.762 76.4431