ITEM: TIMESTEP
401000
ITEM: NUMBER OF ATOMS
16000
ITEM: BOX BOUNDS pp pp pp
3.9304362135298021e-01 1.0180695637864986e+02
5.7275381531915031e+00 9.6472461846801977e+01
-5.2085487049340031e+00 1.0740854870493261e+02
ITEM: ATOMS id type x y z
217 1 16.3494 5.91824 11.7022
8 1 19.6347 7.81343 -4.5526
10 1 24.2259 7.87949 -3.52531
12 1 28.6162 8.18974 -2.83066
14 1 33.2139 8.18748 -2.28394
85 1 3.73712 9.67736 -3.5857
87 1 8.18793 10.0213 -2.41607
213 1 7.5163 5.89837 10.8105
89 1 13.3582 10.5401 -2.20188
281 1 1.9472 5.88073 15.8966
22 1 20.3726 12.572 -4.00826
24 1 23.9797 12.7427 -3.42778
26 1 29.1211 12.627 -3.06474
28 1 34.0627 12.7853 -1.74349
99 1 3.86889 14.5062 -3.1618
101 1 7.99612 14.0289 -1.93913
103 1 12.6854 14.7746 -1.86357
36 1 19.829 17.6402 -4.10179
38 1 24.4827 16.7596 -3.65011
40 1 29.0231 16.6084 -3.26482
42 1 33.5281 17.2881 -2.5655
113 1 3.77756 18.7672 -3.07552
115 1 7.66513 19.5173 -2.16829
117 1 13.1429 19.077 -2.0267
34 1 15.9949 17.1739 -4.36742
221 1 24.3231 5.95264 12.1486
127 1 3.65488 23.5682 -3.09762
129 1 8.23247 23.6185 -2.44094
351 1 1.79053 5.82468 21.6849
131 1 12.9481 23.6737 -1.41065
48 1 15.6107 21.719 -4.78099
50 1 20.3323 21.8121 -3.90876
52 1 24.3096 21.4967 -4.14107
54 1 28.4989 21.7363 -2.92437
56 1 32.9193 21.3434 -1.93171
62 1 15.6997 26.0612 -4.86913
64 1 19.636 26.063 -4.02212
66 1 23.8524 26.2257 -4.42463
68 1 28.1406 26.5924 -2.53769
10878 1 1.02629 7.82703 -0.183705
72 1 5.84264 8.15239 -0.0378341
74 1 10.2554 8.40031 1.14085
395 1 5.51122 19.8708 22.9486
75 1 12.417 5.80902 -2.1167
10891 1 0.814758 12.2614 -0.822124
86 1 5.3334 12.5824 0.736104
88 1 9.83566 12.934 1.43936
90 1 14.243 13.0127 1.39632
91 1 17.1946 10.3633 -1.28537
93 1 21.1427 10.2793 -1.06909
95 1 25.8619 10.0745 -0.518295
97 1 31.169 10.3056 0.288677
10904 1 0.711305 16.9696 0.00376087
100 1 5.16951 16.7094 0.816625
102 1 9.97443 17.0064 1.10667
104 1 14.5036 17.1459 1.5912
105 1 17.4031 14.8479 -1.10304
107 1 21.9171 15.2169 -0.389063
109 1 26.415 14.9068 -0.0678956
111 1 30.3401 14.3296 0.791075
119 1 17.5288 19.2135 -1.23483
121 1 22.1734 19.8366 -0.503956
123 1 26.5453 18.869 0.0149278
125 1 30.4034 18.9393 0.463867
10917 1 1.39995 21.6911 -0.327365
114 1 5.21273 21.862 -0.0332337
116 1 9.73936 21.8565 1.05386
118 1 14.5579 21.6741 1.5575
133 1 17.7381 23.6249 -1.52447
135 1 22.028 24.3978 -0.302962
137 1 26.0676 23.5708 -0.300203
139 1 30.625 23.5599 0.562102
10930 1 1.16277 26.375 -0.516106
128 1 5.32544 25.9982 0.626624
130 1 9.95325 25.7429 1.34869
132 1 14.1298 26.3344 1.90518
153 1 30.038 5.74046 6.3024
70 1 33.158 25.6717 -1.95029
20 1 15.9437 13.2508 -4.75479
46 1 10.8886 21.1233 -4.95383
76 1 14.7563 8.43181 1.13431
78 1 18.8803 7.71947 2.15499
80 1 23.2721 7.97432 2.72595
82 1 27.7818 8.10415 2.77456
84 1 32.861 7.33646 4.4142
155 1 2.55438 10.7845 2.98174
157 1 7.08296 10.1338 4.12728
159 1 11.8133 9.9499 4.24383
161 1 16.4131 10.8852 4.88607
92 1 18.6488 12.5582 1.58585
94 1 23.3153 12.4981 2.50468
96 1 27.9449 12.0212 3.27123
98 1 32.5252 11.7241 3.95913
169 1 2.50434 15.0567 3.86656
171 1 6.78257 14.9014 4.03144
173 1 11.4586 14.6118 4.5006
106 1 19.2714 17.3484 2.3249
175 1 16.5443 14.863 5.1189
112 1 32.4595 17.0305 3.79211
183 1 2.74881 18.9247 2.94899
185 1 7.27987 19.6761 3.60254
187 1 11.9008 19.3563 4.63876
189 1 16.5933 19.3096 5.12698
108 1 23.8081 16.3413 3.20893
110 1 28.5186 16.6375 3.63762
197 1 2.85939 23.9521 3.5124
199 1 7.19104 24.1455 3.64362
201 1 11.5855 23.7783 4.9111
203 1 16.2415 23.792 5.19224
120 1 19.09 22.0034 2.12833
205 1 21.2757 23.7588 5.25924
122 1 23.6273 21.119 2.87785
124 1 27.9945 21.1778 3.73889
126 1 32.7394 21.1245 4.0447
322 1 30.9023 16.8603 22.4465
134 1 18.8172 26.4451 2.27505
409 1 5.61905 23.8111 22.977
136 1 23.4093 26.5884 2.56161
138 1 27.9565 25.6009 3.63752
140 1 32.579 25.5639 4.1845
142 1 4.66551 7.72159 7.37282
144 1 9.27324 7.91131 7.29288
146 1 14.0139 8.38389 7.98301
148 1 18.2806 8.58517 8.35283
6 1 15.4688 7.78627 -5.02616
141 1 3.70582 6.18815 3.04
1481 1 26.0321 28.2699 0.241004
156 1 4.68434 12.3932 6.74708
158 1 9.45359 12.5671 7.31088
160 1 14.2128 13.0198 7.86018
162 1 18.9959 12.4015 7.94062
163 1 21.0713 10.0884 4.88405
165 1 25.5422 10.2028 6.35141
167 1 29.6312 9.69717 6.81156
1541 1 2.91508 28.5354 3.61851
170 1 4.34182 17.567 6.54924
174 1 14.7001 16.9944 7.93172
177 1 21.2623 14.7529 5.69562
179 1 25.5193 14.173 5.86454
181 1 30.1931 14.4997 6.78524
172 1 9.00606 17.2345 7.31668
176 1 18.9346 17.1291 8.81025
191 1 21.145 19.2491 5.30725
193 1 25.6574 18.794 6.52946
195 1 30.3726 18.9688 7.23049
151 1 25.4367 5.77577 5.96324
184 1 4.84173 21.741 6.0044
186 1 9.56693 21.6155 7.153
188 1 13.9788 21.7088 7.85719
190 1 18.8275 21.7991 8.58692
207 1 25.5643 23.6422 6.55403
209 1 30.0694 23.643 7.40204
215 1 11.609 5.8607 10.7666
198 1 4.66094 25.9399 7.20904
200 1 9.43731 26.1866 7.01436
202 1 13.9109 26.3348 8.15353
204 1 19.1363 26.4585 8.24096
350 1 30.1659 25.9846 22.4874
381 1 5.69513 14.6534 22.2457
4 1 10.7304 7.61127 -5.04863
7161 1 33.6478 28.2196 20.0183
150 1 22.789 8.55441 8.64842
152 1 27.3767 7.19517 9.80648
154 1 32.0609 7.73033 10.1375
225 1 2.26283 9.93477 8.93034
227 1 6.6212 10.436 10.3975
229 1 11.4293 10.3906 10.6957
231 1 16.1595 10.6845 11.4387
233 1 20.5312 10.4793 11.9116
164 1 23.0208 12.5327 9.54895
235 1 25.0546 10.0524 12.4367
166 1 27.5698 12.1154 9.728
168 1 31.9822 12.574 10.5485
239 1 1.93424 15.1553 8.68244
241 1 6.78012 15.0075 10.1249
243 1 11.4022 14.9307 10.7459
245 1 15.9583 15.2568 11.9776
247 1 20.6212 15.3167 11.9248
182 1 32.4674 16.6655 10.0757
253 1 2.30359 19.2611 9.23369
255 1 6.97392 19.6446 10.4028
257 1 11.7114 19.0618 10.6217
259 1 16.5662 19.1634 11.5977
261 1 21.3293 19.0965 11.6482
178 1 23.4079 16.5547 8.27607
180 1 27.5598 16.6255 9.92487
267 1 2.26342 23.8881 9.99173
269 1 6.7176 23.996 10.2421
271 1 10.9863 23.6723 10.7685
273 1 16.0929 24.0227 10.9861
192 1 23.4274 21.3701 8.81248
275 1 20.7026 23.6404 11.9541
194 1 28.0761 21.2121 9.80426
196 1 32.6691 21.3431 10.4851
346 1 21.4264 25.7403 21.5769
1621 1 25.0758 28.1666 12.8265
268 1 4.30705 26.2564 13.3891
1753 1 6.05484 28.5241 22.5167
1615 1 11.3003 27.5447 11.0198
206 1 23.3605 26.1579 8.8041
308 1 31.1007 12.2283 22.6623
208 1 27.9223 25.9396 9.86473
210 1 32.4631 26.1394 10.2663
212 1 3.82198 8.01327 12.8916
214 1 9.20076 8.60772 13.8745
216 1 13.5411 8.00265 14.352
218 1 18.1412 7.46745 15.1293
220 1 22.0634 7.91737 15.461
1471 1 3.59269 28.1523 -3.00222
237 1 29.7001 9.60749 13.3942
145 1 12.3782 5.84739 4.31126
295 1 1.90671 10.2642 15.3972
226 1 3.88539 12.4073 12.4718
228 1 9.26215 13.0008 13.3522
230 1 13.8812 12.6484 14.0013
232 1 18.5395 12.7818 14.4826
234 1 23.2141 12.315 15.3707
236 1 27.1665 12.5583 15.7055
1551 1 25.3633 28.3313 6.30196
246 1 18.0668 17.2133 14.7867
249 1 25.1949 14.6624 12.9069
248 1 22.8067 16.9164 14.7614
251 1 29.8209 14.4875 13.2054
323 1 1.96561 19.4858 15.7761
240 1 4.75854 17.1139 12.5582
242 1 8.9319 17.3742 12.9217
244 1 13.4265 17.7941 13.9485
263 1 25.5089 19.3895 12.2261
265 1 29.4654 19.2211 13.4691
254 1 4.29913 21.1887 13.0774
256 1 9.13411 21.633 13.4702
258 1 13.3791 21.5818 13.5823
260 1 17.9091 21.279 14.449
262 1 22.5044 21.423 15.4324
277 1 25.2232 23.827 12.3748
279 1 29.1889 23.8775 12.8301
383 1 10.2698 14.5746 22.7296
348 1 26.0747 25.6936 22.0001
344 1 17.4672 26.3173 21.1288
270 1 8.60545 25.8637 14.0137
272 1 13.2899 26.0858 14.0417
274 1 18.0152 25.7736 14.8856
276 1 22.5045 25.9365 15.5895
1623 1 29.778 28.4004 13.3832
283 1 6.51197 5.77118 15.9909
278 1 26.5016 26.2635 15.8111
282 1 3.84995 8.34211 18.8318
340 1 8.1784 26.2535 19.8846
222 1 26.7799 7.21995 16.0837
224 1 31.301 7.45974 16.9013
296 1 3.6013 12.5725 18.833
297 1 6.53369 10.5897 15.7011
299 1 11.2676 10.2782 16.7206
301 1 15.9271 10.7131 17.7294
303 1 20.3661 9.86646 18.523
305 1 24.4915 10.1713 19.1246
307 1 29.2247 9.97775 18.9158
238 1 31.7958 11.569 16.6301
309 1 2.02184 15.4122 15.7295
311 1 5.80909 14.5683 16.0958
313 1 10.5993 14.9852 16.4753
315 1 15.749 14.704 17.8574
317 1 19.9738 14.4437 17.8569
319 1 24.5978 14.7582 18.5506
321 1 29.8328 14.6653 19.049
310 1 3.62803 17.2618 19.5969
325 1 6.47264 19.2192 16.6613
327 1 10.4447 18.7567 16.8244
329 1 15.2581 19.0748 17.0995
331 1 20.0636 19.0556 17.852
333 1 24.0863 19.4069 18.4026
250 1 27.448 17.2181 15.9526
335 1 28.9501 19.356 18.857
252 1 31.5746 17.3785 16.5877
337 1 1.81721 23.2156 15.5635
324 1 4.06318 21.2948 19.3728
339 1 6.62231 23.6331 16.2121
341 1 11.1286 23.4233 17.4044
343 1 15.6858 23.7164 17.3948
345 1 19.58 23.7192 18.5586
347 1 24.1058 23.9589 18.966
264 1 26.2519 21.6096 15.7989
266 1 31.8834 22.0857 16.324
338 1 3.68057 25.87 19.2342
1685 1 10.6805 28.1304 17.4767
5913 1 33.5124 23.7806 20.2814
342 1 12.7615 26.0937 20.2053
349 1 28.1233 23.9035 18.8825
280 1 31.3303 26.0182 16.7945
284 1 8.59095 8.67335 19.3903
286 1 12.2683 7.77799 20.5424
288 1 17.1295 7.66033 21.0167
290 1 21.9182 7.75222 21.6007
292 1 26.3907 7.84964 21.9329
332 1 21.4748 21.2147 21.8334
294 1 30.4668 7.72651 22.5822
365 1 1.11699 10.4211 21.9694
367 1 5.55576 10.2453 22.6416
298 1 7.66521 12.4245 18.8564
300 1 12.3389 12.3712 19.9621
302 1 17.1262 12.4758 20.9083
304 1 21.9292 12.3426 21.4297
306 1 26.6011 12.6217 21.928
5874 1 33.1767 10.5121 20.0391
353 1 6.06782 6.07238 22.3817
379 1 0.892983 14.3413 22.2535
334 1 26.0757 21.8282 22.3529
318 1 21.7327 16.9066 21.4954
320 1 26.6626 16.9646 21.3681
5887 1 33.7064 14.6023 19.7418
393 1 1.05752 19.1161 22.3481
312 1 8.04505 16.9409 19.4556
314 1 12.5446 16.5742 19.9697
316 1 17.2878 17.0146 20.832
1479 1 21.9748 28.4695 -1.07784
5900 1 32.9623 19.3557 19.8772
407 1 1.77043 23.532 21.607
330 1 16.7648 21.1117 20.9041
326 1 8.71969 21.6026 20.1663
328 1 13.1398 21.3005 20.5232
1473 1 8.3215 28.1544 -2.3035
1553 1 29.9063 28.3259 6.89808
1681 1 1.71238 28.0136 16.1027
1545 1 11.9747 28.4584 4.6923
1613 1 6.6631 27.9312 10.1824
1483 1 30.7099 28.2063 1.01642
219 1 20.5216 5.72261 11.6497
79 1 21.8813 5.89324 -1.17912
287 1 15.5401 6.07233 17.999
1475 1 12.7364 28.0607 -1.63275
1549 1 21.2292 28.0384 5.23684
1683 1 6.30241 28.0634 16.3276
1543 1 7.64455 28.2592 4.04496
1687 1 15.458 28.2739 17.5848
1693 1 28.901 28.1154 19.3974
1751 1 1.90507 28.3907 21.2826
352 1 3.24263 8.25066 25.3175
354 1 7.35713 7.97887 26.438
369 1 9.86241 10.3431 23.4364
336 1 30.6253 21.4482 23.0861
654 1 20.2904 12.6578 50.9336
563 1 4.11827 5.99016 41.1945
366 1 3.09605 12.2313 25.3406
463 1 1.62552 18.7312 27.893
371 1 14.6852 10.1069 23.8717
373 1 19.81 9.9697 24.0786
375 1 24.2422 10.5757 25.279
377 1 28.1627 9.97444 25.5683
5939 1 32.3681 9.45125 25.9605
382 1 8.30959 17.2018 25.7247
648 1 5.48785 12.9679 50.6686
385 1 14.9254 14.8672 23.5816
387 1 19.7775 14.7371 24.1698
389 1 24.1972 15.393 25.0641
391 1 28.5081 14.6229 25.5066
380 1 4.28125 17.4436 25.3516
674 1 1.16553 21.9043 50.3023
397 1 10.2671 19.28 23.0631
399 1 14.3378 19.1723 24.1856
401 1 18.8129 19.2421 24.5839
403 1 23.4153 19.668 24.7096
405 1 28.1125 18.961 25.4122
394 1 2.8188 21.5261 25.6806
411 1 10.2565 23.9568 23.0435
413 1 14.724 23.9919 24.0015
415 1 19.3452 23.7012 24.6398
417 1 23.6114 23.5831 25.1574
419 1 28.8095 23.4538 25.9303
637 1 12.2894 5.96784 49.5143
408 1 3.25715 26.2922 25.0414
410 1 7.85716 26.3016 26.2478
355 1 10.4924 5.64959 23.8362
412 1 12.4154 26.1488 26.7027
1901 1 22.3287 27.9308 37.9014
5991 1 31.8465 5.64831 32.6855
1763 1 28.3675 28.2222 25.3696
2041 1 23.4397 28.1642 48.2887
421 1 0.757959 6.65873 27.9263
356 1 11.9374 8.39058 26.3836
358 1 17.1993 8.25052 27.454
360 1 21.9526 8.14238 27.8384
362 1 26.032 8.06058 28.4684
364 1 30.1627 7.76843 29.0081
435 1 0.765926 10.9092 28.0809
437 1 5.02877 9.95775 28.9441
368 1 7.3181 12.5683 26.2954
439 1 9.55705 10.262 29.8586
370 1 12.0806 12.8414 26.9337
374 1 21.4107 13.0634 27.8189
376 1 25.8999 12.7421 28.8255
378 1 30.2343 12.3339 29.179
449 1 0.807065 14.9629 28.4971
451 1 5.13346 14.9572 28.6011
453 1 9.51441 14.7544 29.581
384 1 12.2469 16.5671 26.4417
372 1 16.9409 12.3488 27.3321
390 1 26.0219 17.3624 28.497
5952 1 33.0259 14.7777 26.1805
700 1 33.0702 26.0978 49.1496
465 1 5.97727 19.4861 29.2059
467 1 9.97499 19.1139 29.7173
469 1 14.0275 18.7778 30.1271
386 1 16.6341 16.7712 26.9214
388 1 21.1892 16.9684 27.9207
5965 1 32.1031 19.2026 25.8799
392 1 30.5736 17.2701 29.0431
477 1 0.715185 23.5119 28.4217
479 1 5.216 23.7752 29.037
396 1 7.63432 21.7876 26.1519
481 1 9.66532 23.8156 29.8659
398 1 11.93 22.0616 27.0832
400 1 16.3753 21.3243 27.608
402 1 20.9513 21.3859 28.2259
404 1 25.624 21.0573 27.6346
5978 1 33.3852 23.8494 26.2484
406 1 29.6938 21.5727 29.2387
503 1 26.9234 5.85578 38.2891
414 1 16.7245 26.0934 27.9159
416 1 21.3895 25.834 28.1155
418 1 25.7886 25.8962 28.5012
420 1 30.535 25.8832 28.8165
634 1 5.40026 7.97982 50.8584
422 1 1.68594 8.36254 32.0542
424 1 7.15478 7.94399 32.7202
426 1 11.837 7.5555 33.0505
428 1 15.9744 7.6104 33.0078
1899 1 18.4174 28.2472 37.3975
436 1 2.95356 12.4648 31.6261
438 1 7.05545 12.5613 32.3465
440 1 11.707 12.5974 33.0445
441 1 14.0914 10.0017 30.0052
443 1 18.8035 10.3752 30.2347
445 1 23.2112 10.6408 31.2145
447 1 27.9077 10.7828 31.8724
6004 1 31.7768 10.466 32.4552
450 1 2.7874 17.1989 32.0991
452 1 7.41491 16.7908 32.4436
455 1 14.6902 14.752 30.0288
457 1 18.6261 14.2692 30.6715
459 1 22.8539 15.2938 31.5218
461 1 27.8395 15.0654 32.1129
6017 1 32.2817 14.9544 32.819
454 1 11.9359 17.1665 32.6569
471 1 18.7695 18.6053 30.7173
473 1 22.8711 19.1425 31.6776
475 1 27.0705 19.1784 31.5732
6030 1 32.1307 19.6671 32.6892
464 1 2.72969 21.2206 31.9715
466 1 7.5175 21.2763 32.2039
468 1 12.0155 21.6057 33.1165
483 1 14.0259 24.2129 30.4461
485 1 19.0939 23.3764 30.9294
487 1 23.9003 22.9908 30.9626
489 1 27.5677 24.1391 31.4922
6043 1 31.9468 23.5568 32.323
478 1 2.59607 26.1518 31.9293
480 1 7.6113 26.1669 32.2855
482 1 11.3539 26.1092 33.6136
639 1 16.8777 6.08096 49.9362
1891 1 0.828629 28.366 34.8333
1823 1 5.14689 28.5327 28.7024
640 1 20.4032 7.95759 51.2983
2035 1 7.69043 28.2799 49.006
430 1 20.6754 7.88513 33.7371
432 1 25.2107 8.16508 34.8093
434 1 29.9523 8.04158 35.2653
357 1 15.1079 6.26757 23.9669
507 1 4.22583 10.4905 35.3967
509 1 8.88887 9.95981 35.5084
511 1 13.7682 10.3174 36.1541
442 1 16.0598 12.2945 33.7065
513 1 18.0211 10.4858 36.7429
444 1 20.4274 12.4352 33.9399
446 1 24.8408 12.4871 34.8972
448 1 29.5452 12.1054 35.2923
521 1 5.05038 14.3897 35.3126
523 1 9.6299 14.3893 35.8357
525 1 13.548 15.034 36.6287
456 1 16.3672 17.2716 33.5337
458 1 20.9179 17.0799 34.5028
460 1 25.0026 17.5963 34.6999
462 1 29.6306 18.0799 35.3729
2043 1 29.4359 28.3269 47.1486
535 1 4.49842 19.2421 35.0714
537 1 9.29388 19.0399 35.7389
539 1 13.438 19.796 36.3203
541 1 17.9905 19.5952 37.4425
682 1 20.8629 22.1325 51.0331
549 1 5.09218 23.6645 35.1823
551 1 9.20052 23.6204 35.8253
553 1 13.2346 24.0394 36.9221
470 1 16.5584 21.1217 33.209
555 1 17.9625 23.7709 36.7414
472 1 20.6202 21.7092 34.242
474 1 25.3365 21.9688 34.5743
476 1 29.881 22.1778 35.0731
7291 1 32.5213 27.7748 32.7493
484 1 16.3892 25.7944 33.845
688 1 1.05835 26.568 50.2609
486 1 21.1181 26.213 33.9679
488 1 25.3974 26.0976 34.7503
490 1 29.2116 25.9631 35.5414
492 1 1.85222 8.25529 37.9177
494 1 6.37048 8.19535 39.0359
496 1 11.0763 7.8817 39.219
498 1 15.7373 7.92556 39.7708
693 1 12.3471 24.0969 48.7794
691 1 8.03931 24.1975 48.7478
504 1 30.6131 8.17992 40.2652
506 1 2.08794 12.8284 37.8589
508 1 7.26813 12.1918 38.6363
510 1 11.2516 12.4802 38.7264
512 1 15.4531 12.472 39.7685
515 1 22.5982 10.2116 37.5122
514 1 20.3006 12.4526 40.1914
517 1 27.1687 10.5549 37.991
518 1 31.2243 12.1259 39.5315
6069 1 33.5184 10.4003 37.1613
520 1 2.04252 16.7517 38.0932
522 1 6.42763 16.7958 38.3564
527 1 18.2331 14.9233 37.0314
526 1 16.3078 17.5742 40.2249
529 1 22.9337 15.1328 37.6034
530 1 24.5638 17.4388 40.3241
531 1 27.6333 14.6392 37.9251
6082 1 32.9417 15.1271 36.853
532 1 31.0264 16.8029 39.4578
524 1 10.92 16.9669 38.9389
543 1 22.5736 20.2065 37.4786
528 1 20.7734 17.1122 40.5502
545 1 27.6722 19.5191 38.2598
6095 1 33.7589 19.6443 37.1447
534 1 2.11216 21.4969 37.8931
536 1 6.89355 21.4509 38.6087
538 1 11.4357 21.6706 39.4198
540 1 15.3135 21.8095 39.9869
557 1 22.5277 23.9584 37.842
559 1 27.1647 23.6813 38.449
6108 1 33.2891 23.5136 37.0736
546 1 30.945 21.7503 39.7185
548 1 1.87455 26.1093 38.0305
550 1 6.67393 26.146 38.8033
552 1 11.2762 26.2969 39.128
554 1 15.9932 25.8407 40.4458
556 1 19.9693 26.1481 40.2815
686 1 33.1663 21.7358 48.9562
1759 1 19.0257 28.4591 24.8041
699 1 29.6396 24.0351 46.8561
684 1 26.8558 21.5105 50.1926
7226 1 33.1321 28.3581 25.86
500 1 19.6467 7.95268 40.4683
633 1 2.79447 5.81881 47.4394
502 1 24.301 8.30055 40.4555
577 1 3.9964 10.4925 40.9846
579 1 8.5806 9.69753 42.2332
581 1 13.0501 10.685 42.4963
583 1 17.7281 10.0327 43.1039
585 1 22.3693 10.211 43.7151
516 1 24.9653 13.0251 41.2216
587 1 28.2189 9.79851 42.4231
591 1 4.27752 14.9489 41.5504
593 1 8.59401 14.8613 41.7646
595 1 13.0669 15.169 42.914
597 1 17.7556 15.044 43.176
599 1 22.2858 15.142 44.3435
601 1 28.3985 14.2773 42.6297
605 1 4.15067 19.0639 41.5916
607 1 8.31814 19.4961 41.8621
609 1 13.0398 19.3581 42.5627
611 1 17.6756 19.7364 43.1803
613 1 22.5165 19.5711 43.9876
544 1 24.7399 21.4569 41.4943
615 1 28.551 19.0066 42.533
7356 1 32.9358 28.2147 37.1214
619 1 4.45374 23.7133 41.1118
621 1 8.62738 23.907 42.4612
623 1 13.209 24.1503 42.5756
625 1 17.8404 23.981 43.8392
542 1 20.8037 21.5786 40.7705
627 1 21.9074 24.1491 43.8097
629 1 28.6436 24.3303 42.3634
698 1 26.9114 26.2519 49.3756
697 1 23.4317 23.4465 48.2471
1963 1 3.56582 28.0468 41.6689
1827 1 14.1771 28.1984 30.1313
558 1 24.7667 26.1175 41.2067
560 1 30.8497 26.4374 39.9731
562 1 1.56302 8.96092 43.8353
564 1 5.99807 7.89443 44.7088
566 1 10.2684 7.81032 46.1904
568 1 15.2492 8.67077 46.1703
570 1 19.4247 7.89305 46.6079
572 1 25.5142 7.73725 45.2493
695 1 17.0484 24.1822 49.2593
574 1 31.1969 7.7912 44.1391
576 1 1.25574 12.5364 44.4188
647 1 3.84935 10.7966 47.7532
578 1 5.7939 12.4676 44.8164
580 1 10.4999 12.4897 45.2368
582 1 14.6991 12.5652 45.5633
584 1 19.3327 12.6328 46.3623
586 1 25.4713 12.6314 45.066
657 1 29.5408 10.312 46.994
588 1 32.4798 13.0276 44.1731
590 1 1.98029 17.0276 44.4066
592 1 6.79096 17.2079 44.8927
594 1 10.7468 17.2525 45.1461
671 1 29.2568 14.6866 47.0328
602 1 32.1541 16.9217 44.09
596 1 15.1649 17.337 45.6373
598 1 19.7115 17.2997 46.6812
600 1 25.5 17.2236 45.8479
604 1 1.57577 21.549 44.1184
689 1 3.4672 23.6698 47.689
606 1 6.13964 21.6134 45.0703
608 1 10.3888 21.9726 45.5383
610 1 14.9025 21.9302 45.9951
612 1 20.3029 21.7217 46.4339
614 1 25.8548 21.7928 45.2705
616 1 32.3084 22.1535 44.5429
618 1 1.65793 25.5865 44.306
620 1 5.76933 26.052 44.4087
622 1 10.2383 26.4296 45.1141
624 1 14.8842 26.0838 46.7225
626 1 19.6561 26.1958 47.1186
628 1 25.7272 25.9236 45.7628
630 1 31.9711 26.1889 43.6946
632 1 0.942897 7.95243 50.1847
1829 1 18.7537 28.0087 31.2556
642 1 26.9882 7.78745 49.7024
644 1 33.2096 7.78424 48.3701
646 1 1.04045 12.6023 50.1383
1833 1 28.2143 28.1907 31.8226
649 1 8.04577 10.2181 48.2137
651 1 12.5175 10.1537 48.6891
653 1 16.7675 10.1136 49.2072
655 1 23.2017 10.3926 48.3938
656 1 26.9807 12.3288 49.4726
661 1 3.53393 14.7865 47.5285
663 1 7.94695 14.9894 48.1758
665 1 12.45 15.2994 48.5665
667 1 16.8373 14.9226 48.9555
669 1 23.4089 15.0762 48.4955
670 1 26.7747 16.9788 49.8745
658 1 33.2377 12.5041 48.4867
672 1 33.054 17.0835 48.5612
675 1 3.17987 18.8373 47.7082
677 1 7.81115 19.8214 48.1929
679 1 12.404 19.3147 48.7609
681 1 17.0146 19.9455 49.3302
683 1 23.1888 18.9682 48.7647
685 1 29.3659 19.4365 46.9917
643 1 29.2581 5.83119 47.1598
676 1 5.17641 21.3334 51.0131
1825 1 9.72242 27.9558 29.6584
1897 1 14.0986 28.3079 37.114
1761 1 24.2541 28.0218 24.6168
1893 1 4.92396 28.3778 35.3536
1821 1 0.648307 28.3513 28.3228
567 1 13.1164 5.63251 43.0384
493 1 4.15051 5.74965 35.0908
755 1 30.9413 19.6536 51.2754
713 1 30.0792 5.73874 51.01
636 1 9.76444 8.13793 51.5574
638 1 14.3598 8.17248 52.8893
1055 1 10.6703 6.03265 79.0083
727 1 30.6393 10.3601 51.2698
703 1 2.90578 5.77329 53.9834
717 1 2.7321 10.0009 53.8282
650 1 9.77783 12.8208 51.6438
652 1 14.1641 12.8564 52.0645
723 1 17.8427 10.4642 53.8646
696 1 21.2249 26.7167 51.3895
725 1 24.0767 10.2129 52.3802
726 1 27.7732 12.3344 54.2858
2391 1 28.5407 28.3654 70.6318
756 1 34.0792 21.9518 53.6991
731 1 2.94913 14.5352 53.8294
733 1 7.57507 14.5223 54.7146
714 1 33.8708 7.54517 53.1388
664 1 9.82643 17.511 51.8502
666 1 14.5131 17.1222 51.9792
737 1 17.8496 15.2205 54.1029
1059 1 23.0982 5.75506 75.3831
739 1 24.4514 14.7908 52.555
741 1 30.4831 14.9096 51.5183
2179 1 19.0655 28.1548 58.3347
745 1 2.52367 19.1929 53.9395
668 1 20.3471 17.3552 51.402
751 1 17.8133 19.6847 53.293
753 1 24.2147 19.0907 53.0343
781 1 25.2135 5.67397 57.1797
740 1 28.3669 17.4623 54.4801
759 1 3.66354 23.8083 54.5908
761 1 7.65589 24.483 54.9562
678 1 9.40671 21.6471 51.4571
680 1 14.7177 21.7655 52.0971
765 1 18.0202 24.2685 53.8974
2243 1 1.9377 28.1379 66.2834
767 1 24.6515 23.6707 52.602
754 1 27.9961 21.8462 54.2954
769 1 30.5381 24.2463 51.5557
709 1 17.6226 6.09639 54.017
692 1 10.1149 26.6714 52.0168
694 1 14.2846 26.0877 51.9124
742 1 33.9671 17.6055 52.9108
2319 1 21.1084 28.2492 67.9805
662 1 5.87039 17.3659 51.3843
704 1 4.50194 8.20612 57.8011
706 1 9.35715 8.20756 57.9918
708 1 15.7451 7.83846 57.116
710 1 21.5596 8.30634 55.4277
2177 1 13.4071 28.3842 59.8279
712 1 27.785 8.18249 54.1613
719 1 6.8117 10.3573 54.4054
718 1 4.41348 12.3417 57.5429
721 1 11.4011 10.7409 55.1035
722 1 14.9765 11.979 56.1721
724 1 21.3941 12.277 55.4288
795 1 25.3791 10.3826 56.9131
797 1 31.4106 10.3767 55.7795
735 1 12.0937 15.4089 54.9893
736 1 15.6585 17.8438 57.0494
738 1 21.8115 17.0572 55.7375
809 1 25.381 15.0919 57.1661
811 1 31.4674 14.8584 55.6106
2383 1 3.93769 28.1953 75.2282
747 1 7.27333 19.6547 54.3651
732 1 4.71767 16.9661 57.4323
749 1 11.6865 19.3339 54.9397
823 1 25.8297 19.0489 57.2988
825 1 31.4791 19.2656 55.1926
746 1 5.19531 21.4624 57.1189
763 1 12.2864 23.7471 55.3122
750 1 15.4794 21.5281 56.6491
752 1 21.5089 21.5791 55.4112
837 1 24.934 23.4913 57.3778
839 1 31.3935 24.2548 56.4208
760 1 4.66688 26.148 57.4637
762 1 9.50346 26.2375 57.9437
2249 1 20.4562 27.8921 63.1782
764 1 15.1003 26.5381 56.5862
766 1 22.0617 25.7946 55.8665
768 1 28.1512 25.768 55.1825
744 1 0.418712 21.8834 56.6782
778 1 16.3391 7.33225 61.4306
780 1 22.7977 7.82428 59.7439
782 1 28.7417 8.31226 58.9105
787 1 1.50741 9.73917 60.0611
789 1 6.42206 10.1031 61.3356
720 1 8.90584 12.7207 58.1565
791 1 12.6865 10.3374 59.6305
792 1 16.6637 12.1713 61.0808
793 1 18.862 10.3573 58.6018
794 1 22.7306 12.5204 59.9854
796 1 28.9636 12.3505 58.0427
867 1 32.6775 10.0164 60.3602
801 1 2.0664 14.5933 60.0834
803 1 6.6609 14.8598 61.0754
734 1 8.87415 17.1729 57.8982
805 1 13.5391 14.9994 59.2701
807 1 19.0141 14.565 57.9177
808 1 22.8659 17.0475 60.3134
881 1 32.5663 14.5621 60.2424
815 1 2.5921 19.2548 59.9572
817 1 7.0747 19.6255 60.9738
819 1 12.6939 18.9807 59.4957
806 1 16.2664 16.8916 61.1238
821 1 19.1513 19.0091 58.3699
810 1 29.5639 16.7837 58.6365
895 1 33.1983 19.1718 60.4625
829 1 2.2117 23.2282 59.7508
831 1 6.63848 23.6705 60.8845
748 1 9.46355 21.9544 57.7358
833 1 13.0395 24.0135 60.061
820 1 16.3616 21.7831 60.9903
835 1 19.3616 23.6051 58.3197
822 1 23.0445 21.846 60.8181
907 1 26.1881 23.6707 61.9369
824 1 29.6514 21.2608 59.0083
909 1 32.4227 23.7701 60.4858
2175 1 6.63772 28.2615 60.686
707 1 11.5744 6.10061 55.3508
834 1 16.661 25.9075 61.2543
836 1 22.6864 25.8605 60.3727
2323 1 33.3062 28.3081 65.8732
838 1 28.7081 26.4169 59.134
845 1 7.65104 5.83731 65.4023
774 1 3.89589 7.89888 63.6658
776 1 10.2574 8.29772 62.5816
2111 1 24.5153 28.1408 52.6902
850 1 23.9262 7.66107 64.199
1118 1 30.808 26.16 78.9487
852 1 29.7032 7.9233 62.8706
788 1 4.34577 12.4999 63.4579
790 1 10.591 12.3277 62.131
861 1 13.7656 10.0773 64.2556
863 1 19.9487 9.92579 62.6906
865 1 26.5625 10.3658 61.4037
864 1 24.54 12.4412 64.4276
866 1 30.6873 12.3644 63.0991
937 1 33.7935 10.8764 65.0095
873 1 7.58033 15.0655 65.5518
875 1 14.1479 14.5837 63.4164
877 1 20.3416 14.4498 62.3205
879 1 27.0313 14.9225 61.379
878 1 23.7939 16.663 64.3921
802 1 4.16481 17.0344 63.8019
887 1 8.08645 19.2737 65.4215
804 1 10.4918 17.1973 62.1747
889 1 13.9932 19.2173 64.0329
891 1 19.9876 19.1658 62.6009
893 1 26.4216 19.494 62.0429
880 1 29.8802 17.0707 63.1942
816 1 4.39895 21.4081 63.175
901 1 7.78257 23.8382 65.213
818 1 10.1537 21.5911 62.4601
903 1 14.2329 23.3074 64.1779
905 1 20.0618 23.9052 63.0793
892 1 23.5225 21.1292 65.3739
894 1 29.7481 21.2169 63.4377
830 1 4.10858 26.09 63.8381
832 1 10.4277 26.1883 62.3714
906 1 24.074 25.9165 64.7384
908 1 29.76 25.9613 63.5793
705 1 7.08318 5.98979 54.8613
844 1 4.91558 8.25626 68.031
846 1 11.1878 7.39475 66.58
848 1 17.3298 8.012 65.9111
1100 1 20.919 21.1902 78.5715
922 1 30.8283 7.98422 67.3294
857 1 1.74824 10.2179 66.5929
859 1 7.96218 10.4551 64.9565
858 1 5.51798 12.3351 67.9563
860 1 11.189 12.2298 66.3585
862 1 18.1079 12.9795 65.3474
933 1 21.3045 10.2435 67.302
935 1 27.5823 10.2865 66.076
936 1 31.1428 13.3399 67.5725
871 1 1.94309 14.8342 66.2448
874 1 11.3298 16.8574 66.6834
945 1 14.8109 14.5944 68.3669
876 1 17.7471 16.9768 65.4972
947 1 21.4099 14.5183 66.846
949 1 27.3035 14.7684 65.4101
2247 1 14.1718 28.0109 64.3659
885 1 2.26506 19.3817 66.8518
872 1 5.49869 16.647 68.1463
959 1 14.8228 18.9575 68.6051
961 1 20.9497 18.8871 67.4232
963 1 27.4382 18.9041 66.6682
1033 1 33.7435 19.0081 65.1886
950 1 31.0029 17.3153 67.7402
899 1 1.85076 23.9772 66.2238
886 1 5.34579 21.5004 67.8818
888 1 11.7363 21.6074 66.3477
890 1 17.5137 21.1309 65.2985
975 1 21.0641 23.3527 67.3087
962 1 24.967 21.5988 69.2978
977 1 27.0882 23.6685 66.4256
964 1 33.2954 23.5505 65.1534
1035 1 31.0167 21.3076 67.3557
2245 1 8.06892 28.1115 65.1433
900 1 5.37418 26.1629 68.2739
902 1 11.7247 25.6692 66.922
1116 1 26.5413 25.9425 78.2196
904 1 17.4511 25.5846 65.8498
976 1 24.0751 25.9004 68.9159
978 1 30.7219 25.954 68.0466
914 1 5.94448 7.99351 72.5535
916 1 12.2429 7.18973 71.2941
918 1 18.3772 8.1073 69.7063
920 1 25.2439 8.2233 68.736
927 1 3.01107 10.1962 71.2201
928 1 6.67043 11.7969 72.4899
929 1 8.60378 9.78807 69.5443
931 1 14.0598 9.96343 68.5872
930 1 12.238 12.108 71.3746
932 1 18.3323 12.5428 69.9273
1003 1 21.8609 10.7972 71.0534
934 1 25.1556 12.9977 69.0534
1005 1 28.3639 10.8484 70.169
1006 1 32.3707 12.5884 71.7335
941 1 2.83185 14.2315 70.9828
943 1 9.17041 14.37 69.9128
946 1 18.7221 16.6552 70.2002
1017 1 22.0737 14.4234 71.5155
1019 1 28.8112 15.0638 70.3786
955 1 2.56417 19.1563 70.8736
957 1 9.10074 18.9201 69.6631
944 1 12.7371 16.8169 71.4551
1031 1 22.5964 19.2174 71.8465
948 1 25.1852 16.7797 68.9179
1020 1 28.4489 19.1676 71.2335
969 1 2.46574 23.9794 71.0135
971 1 9.16021 22.9983 69.8759
973 1 15.4775 23.6668 68.7149
958 1 12.4463 21.4472 71.5427
960 1 18.8711 21.5045 70.4682
1045 1 22.1907 24.0303 71.7556
2183 1 31.1349 28.2371 56.4752
2173 1 2.22175 28.0039 60.4601
972 1 12.6301 25.7822 71.5113
974 1 18.1195 26.1113 70.0862
1114 1 20.9457 26.2391 78.8006
1047 1 28.8771 23.664 70.929
1040 1 7.31926 25.7813 76.2537
2313 1 3.14488 28.4183 70.6678
988 1 19.4535 7.99367 73.579
990 1 26.2123 8.13537 73.0472
992 1 31.611 7.98297 71.5354
1057 1 17.023 5.98655 77.3035
997 1 4.16855 9.90215 75.6801
999 1 9.73544 10.1036 73.9788
1000 1 13.0734 12.2727 75.4702
1001 1 16.0427 9.74635 72.8218
1002 1 19.2702 12.7901 74.6075
1004 1 25.7767 12.3237 72.9178
1075 1 29.621 10.3931 74.862
1077 1 34.1057 10.2792 75.4393
1011 1 3.40666 14.3303 75.0393
942 1 6.39703 16.6588 72.7287
1013 1 10.1672 14.4443 74.3127
1014 1 13.7384 16.8482 75.6059
1015 1 16.1483 14.1183 72.6456
1016 1 19.7781 16.6254 74.2031
1089 1 29.802 14.7807 74.8901
1091 1 33.9337 15.092 75.4784
1025 1 3.5533 19.1038 75.1985
1027 1 10.1137 19.3499 74.0964
1029 1 15.8973 18.9765 73.1079
1018 1 25.7198 16.9028 73.4135
1103 1 29.309 19.5287 75.1122
1022 1 32.2821 17.1919 72.618
956 1 5.95866 21.3359 72.4095
1041 1 9.76435 23.2426 73.7442
1043 1 16.2569 23.5345 73.2448
1030 1 19.8982 21.0991 74.2853
1032 1 26.1612 21.6265 73.8905
1117 1 29.3971 23.8241 75.1792
1034 1 31.7692 21.6978 72.4347
1038 1 1.17732 26.8625 78.0371
970 1 6.38824 25.7701 72.1377
779 1 19.7077 6.3452 58.2558
1044 1 19.6574 25.6054 74.2526
1046 1 25.9253 25.6197 73.7212
1042 1 13.4306 25.806 76.12
1048 1 32.1092 26.4081 72.4143
982 1 1.02437 7.43128 78.1445
984 1 6.8997 7.99684 77.1184
986 1 13.6507 7.81617 75.6951
1058 1 20.0752 8.17764 77.7137
1060 1 26.5187 8.42393 77.4613
1062 1 31.2002 8.31293 78.6062
996 1 0.788602 11.849 78.193
998 1 7.617 12.4154 77.4859
1069 1 10.7294 9.70341 78.1872
1071 1 17.1616 10.808 77.3979
1072 1 21.1474 12.6891 79.0081
1073 1 23.2469 10.4048 75.3144
1074 1 26.2429 12.4454 76.9245
1076 1 31.1438 12.3879 78.1737
1083 1 10.5858 14.4975 78.4834
1085 1 17.3881 14.9618 77.632
1087 1 23.4944 15.0916 75.9922
1088 1 27.1471 16.7732 78.1737
1090 1 31.1779 17.148 78.7994
1010 1 0.624866 15.8401 77.571
1012 1 7.28247 16.5864 76.7444
1097 1 10.7506 18.9765 78.7737
1099 1 16.6725 19.5884 77.6342
1086 1 20.3926 17.1842 79.0376
1101 1 24.0144 19.4329 76.1777
1105 1 33.4394 19.7799 75.5781
1024 1 1.37412 21.1509 78.2853
1039 1 3.78696 23.5908 75.8456
1026 1 7.46394 21.0977 76.7393
1111 1 10.1941 23.7834 79.2226
1028 1 13.231 21.7497 76.1361
1113 1 17.186 23.696 77.7139
1115 1 23.1053 24.41 76.2732
1102 1 26.5073 21.5182 78.4177
1119 1 33.8851 24.0001 76.0829
2385 1 10.0498 28.039 74.2026
2387 1 16.602 28.1493 73.073
2459 1 23.439 28.4168 76.3822
2389 1 21.7474 28.3147 71.9937
2317 1 15.029 28.2319 68.8459
2315 1 9.26373 28.2477 69.4949
847 1 13.7547 5.84813 64.2444
985 1 9.9201 5.71212 74.2879
991 1 28.43 5.98219 70.6052
1104 1 31.4862 21.0821 78.9845
660 1 0.828906 17.191 51.0202
690 1 5.46056 26.0999 51.3408