ITEM: TIMESTEP
45000
ITEM: NUMBER OF ATOMS
16000
ITEM: BOX BOUNDS pp pp pp
3.1464829867989863e-01 1.0188535170132246e+02
5.6200684372526055e+00 9.6579931562746651e+01
-4.9313220833599303e+00 1.0713132208335948e+02
ITEM: ATOMS id type x y z
143 1 7.55369 5.73836 4.16671
10956 1 0.572308 11.9144 6.14084
10969 1 0.345137 16.7558 5.87218
221 1 25.001 5.69697 12.3388
8 1 21.1541 7.82475 -3.42151
10 1 24.8197 7.07817 -2.58438
12 1 29.2426 8.09378 -2.47615
14 1 32.9769 7.7238 -2.28853
85 1 3.68092 10.0591 -3.21087
87 1 8.36637 10.1062 -2.33703
6 1 15.2831 7.85425 -4.32293
20 1 14.873 12.464 -4.52993
22 1 19.3342 11.9358 -4.00602
24 1 24.1427 11.7272 -3.10136
26 1 28.7046 11.9835 -3.42321
28 1 32.8365 12.4349 -2.35211
99 1 4.3319 14.5617 -2.15813
101 1 8.26511 14.4736 -2.63529
103 1 12.9734 14.5442 -1.8789
5861 1 33.3057 5.65302 20.1598
36 1 20.0721 16.319 -3.99766
38 1 24.0772 16.5516 -3.1213
40 1 28.7384 16.5095 -2.42567
42 1 33.1868 16.6506 -1.77627
113 1 3.58756 18.7305 -2.447
115 1 8.2433 18.6987 -2.35202
117 1 12.8551 18.6587 -1.817
127 1 3.0476 23.2461 -2.64238
129 1 7.56508 23.8853 -2.08005
10995 1 0.46003 26.163 6.25242
131 1 12.3484 23.913 -1.71272
133 1 17.4838 24.215 -1.64479
50 1 19.6832 21.012 -3.74557
52 1 23.9474 21.3091 -3.20368
54 1 29.0484 21.1576 -2.88245
56 1 33.447 21.4222 -2.01205
367 1 5.85059 10.4313 22.7688
369 1 10.632 10.0354 22.8342
1617 1 16.1873 28.3285 11.0756
64 1 19.7239 26.4265 -4.17354
66 1 23.4248 25.8687 -3.02059
68 1 29.2547 25.8705 -2.67411
70 1 33.0806 25.3328 -1.7611
10878 1 1.12283 7.73039 -0.447255
72 1 6.42192 7.52101 0.752037
74 1 10.3584 8.06886 1.2394
76 1 14.8467 7.50656 1.74744
78 1 19.1709 7.48916 2.57408
10891 1 0.772928 12.3934 -0.38859
86 1 5.38476 12.2133 0.737918
88 1 10.1918 12.0506 0.698694
89 1 12.9261 10.0443 -2.35328
90 1 14.5021 11.9871 1.63573
91 1 17.4425 9.89551 -1.30947
92 1 18.9147 12.4455 2.47219
93 1 21.107 9.88655 0.0958112
95 1 26.2173 9.94385 -0.358562
94 1 23.7736 11.9423 2.37669
97 1 30.6939 9.85897 1.09019
105 1 17.0181 14.759 -1.05914
107 1 21.5161 14.2303 0.0296931
109 1 26.1576 14.5568 -0.488744
111 1 30.4391 14.1537 1.24101
10904 1 0.970826 17.2805 -0.0835795
100 1 5.84074 16.9666 0.630136
102 1 9.98252 16.6966 1.29863
104 1 14.453 16.6114 1.88283
119 1 17.5462 18.5954 -1.74118
106 1 19.137 16.6389 2.43271
121 1 22.0723 18.8867 -0.620493
123 1 26.1109 18.7711 0.127694
125 1 30.6329 19.3678 0.917039
10917 1 0.821202 21.223 0.188066
114 1 5.52663 21.1468 0.825823
116 1 10.2468 21.5541 0.67436
118 1 14.9469 21.2065 1.19009
120 1 19.2419 21.4865 1.76822
135 1 21.5621 23.7445 -0.781352
137 1 26.2016 23.5227 0.230651
122 1 23.3503 21.2662 3.14617
139 1 30.3869 23.3646 1.18579
10930 1 1.31207 26.0773 -0.122957
46 1 10.2904 21.0098 -4.77249
128 1 6.01924 25.9591 0.823895
130 1 10.1138 26.2041 1.24423
132 1 14.7503 25.8706 1.86704
134 1 18.9106 26.2152 2.3276
141 1 2.85222 5.6356 3.41266
5809 1 34.0348 10.0796 13.9164
293 1 28.6919 5.76673 19.138
136 1 23.51 25.8075 2.71331
1691 1 24.549 27.8055 19.2218
77 1 17.6364 5.47869 -1.14007
10943 1 0.659531 7.94318 6.02731
80 1 23.8892 7.34503 2.79641
82 1 28.0907 7.83243 3.31607
84 1 32.2939 8.2191 4.44453
281 1 1.64633 5.97762 16.0587
155 1 3.01255 10.1234 2.83641
157 1 7.49709 10.37 4.04496
159 1 11.4395 10.3811 4.9514
161 1 16.5213 10.0209 5.22435
163 1 21.1415 9.61488 5.46867
165 1 25.6067 10.1404 6.34727
96 1 27.7582 12.4618 3.40764
98 1 32.5253 12.0601 4.21501
1687 1 15.4703 27.9663 17.2445
169 1 2.80669 14.7931 3.09992
171 1 7.24292 14.5323 4.26581
170 1 5.03133 16.8946 6.77227
173 1 11.9567 14.7886 4.10386
175 1 16.426 14.5995 5.7386
177 1 20.9589 14.1528 5.49429
108 1 23.9913 16.632 2.78998
179 1 25.6253 13.9847 6.29882
110 1 28.0413 16.446 3.36712
181 1 30.1419 15.355 7.3741
112 1 32.565 16.7985 4.3572
183 1 3.19882 19.336 3.5997
185 1 7.87811 19.1452 4.16683
187 1 11.7278 19.3412 3.95531
189 1 16.7838 19.1293 5.00347
191 1 21.1878 18.9467 5.33238
193 1 25.6304 18.806 6.48714
10982 1 0.573308 21.3778 6.00005
197 1 2.71849 23.8746 3.576
184 1 4.99213 21.5779 7.09652
199 1 7.94075 23.7522 3.85303
201 1 12.6248 23.6768 4.36286
203 1 16.5272 23.9278 4.76297
205 1 21.2016 23.6771 5.31144
207 1 25.4484 23.544 6.53031
124 1 28.0836 21.1601 3.27571
209 1 30.2618 23.1928 7.04611
126 1 32.4919 21.5239 4.81782
1481 1 25.6902 27.4871 0.162577
198 1 5.19932 25.9466 7.00305
346 1 22.0809 26.1288 21.5705
1483 1 29.9006 27.9216 0.668936
1683 1 6.52244 27.9954 16.0923
349 1 28.9233 23.6843 19.9243
1551 1 25.6109 28.2018 6.32889
138 1 28.0943 26.057 3.89318
140 1 33.1625 26.239 5.35811
142 1 5.2305 7.96155 7.37852
144 1 9.8144 7.69134 7.42289
146 1 13.957 8.05304 7.90411
148 1 18.3127 7.19088 8.31184
150 1 22.8509 7.74109 9.56178
152 1 27.4534 7.87247 9.9314
154 1 32.0865 7.42439 10.6016
225 1 2.34002 10.3119 9.3899
156 1 4.86424 12.6161 6.71531
227 1 6.71255 10.0224 10.1253
158 1 9.54303 12.3125 7.33902
160 1 14.1351 12.7 8.48741
229 1 11.2599 9.86934 11.1232
162 1 18.7288 12.0055 8.79384
164 1 23.1436 12.0717 9.01354
167 1 29.7889 10.5409 6.79303
166 1 27.6612 12.7306 9.49545
7161 1 33.3587 28.3203 20.2284
168 1 32.3798 12.7306 10.3465
239 1 1.82539 14.7235 9.67504
241 1 6.88531 14.6911 9.97936
172 1 9.17551 16.8309 7.09834
243 1 10.8767 14.7997 11.0736
176 1 18.7127 16.6915 8.54721
180 1 27.1641 16.9122 9.50594
182 1 31.8173 17.3388 10.1716
253 1 1.94462 19.409 9.20104
255 1 6.74476 18.9945 10.5886
174 1 14.0802 16.6393 8.14481
257 1 11.2406 19.3313 10.4735
178 1 22.6741 16.6019 9.18605
195 1 30.2738 18.9039 6.59058
267 1 2.40686 23.2065 9.48973
269 1 7.11952 23.8094 10.4439
186 1 9.31577 21.9366 7.03252
188 1 13.7853 21.226 7.70904
271 1 12.1447 24.1372 10.1524
190 1 18.2006 21.3483 7.95365
192 1 22.7642 21.3449 9.26199
194 1 27.5247 20.9298 10.159
196 1 31.6555 21.0918 10.4373
200 1 9.85719 25.8873 7.3996
202 1 14.8014 25.9688 7.85044
204 1 18.5827 25.7415 8.67527
206 1 23.4159 25.9412 8.72136
208 1 27.8528 25.9611 9.8217
1553 1 30.0604 27.8921 7.39996
210 1 32.1592 25.7466 10.6615
212 1 4.1147 7.67104 12.8172
214 1 8.78968 8.14088 13.6068
216 1 13.2183 7.74946 13.9655
344 1 17.5658 26.1325 21.0384
342 1 13.0501 25.7691 20.1516
226 1 4.53474 12.7794 12.6056
228 1 8.58641 12.793 13.4399
230 1 13.7215 12.2468 13.8797
231 1 15.8462 9.62634 11.6097
232 1 18.2652 11.9272 14.8311
233 1 20.6633 10.0309 12.5227
235 1 25.4193 10.0548 12.6832
237 1 29.6857 10.5843 13.1222
1681 1 2.14483 27.7548 16.3155
240 1 4.18529 16.6704 13.2201
244 1 13.7248 16.9021 14.3341
245 1 16.0248 14.2971 11.6486
246 1 18.6283 17.2012 14.228
247 1 20.6852 14.8063 11.9603
249 1 25.1812 14.7577 12.5499
251 1 29.2317 14.8233 13.2667
5822 1 33.9216 14.7023 13.7903
242 1 9.04047 17.3026 13.1891
259 1 15.7424 18.935 10.9209
261 1 20.4598 19.0045 11.3818
263 1 24.3715 18.8196 12.8063
265 1 29.0158 18.951 13.6516
62 1 14.9333 25.7617 -3.85705
254 1 4.68486 21.4874 13.3484
256 1 9.30145 21.2518 13.9346
258 1 13.2485 21.4832 13.9921
273 1 16.5812 23.5322 11.7835
275 1 20.5875 23.6332 11.9932
277 1 24.7436 23.6145 12.5335
279 1 29.2053 23.7035 13.5622
351 1 1.14737 5.75886 22.6276
268 1 3.91102 25.4535 13.1624
1615 1 12.1498 28.4873 10.7971
270 1 8.59532 25.5813 13.9199
272 1 13.434 25.3771 13.9304
274 1 17.509 25.92 14.7964
340 1 8.43397 25.759 20.0884
219 1 20.9821 5.87648 12.014
145 1 11.7457 5.63038 4.63966
287 1 15.632 5.90631 18.0853
334 1 26.3897 21.5187 22.8304
218 1 18.074 8.10132 14.6791
220 1 22.4066 7.95976 15.4462
222 1 27.0231 7.78818 16.1907
224 1 31.9764 8.16691 16.5566
295 1 2.17998 10.1788 15.8229
297 1 6.20035 10.0876 16.4826
299 1 10.7897 10.2221 16.8812
301 1 15.2815 9.9176 17.7394
234 1 22.6484 11.7373 16.3392
303 1 20.1834 9.77277 18.604
236 1 26.9273 12.2749 16.5984
238 1 31.735 12.8002 16.7255
309 1 1.605 14.8651 15.6542
310 1 3.84653 17.0363 19.2062
311 1 6.81035 14.5392 16.2786
313 1 10.6742 14.9666 16.8154
315 1 15.3193 14.7087 17.5732
317 1 19.6935 14.394 18.4578
319 1 24.3202 14.6222 19.5644
252 1 31.4814 16.5448 16.9417
323 1 1.66008 19.5056 16.0119
325 1 6.25819 18.8034 16.3223
327 1 10.596 19.0649 17.0002
329 1 15.6383 19.0092 17.5762
248 1 22.7011 16.375 16.3652
333 1 24.2946 18.8967 19.3498
250 1 26.7627 17.0136 16.4456
337 1 1.34952 23.8473 16.6194
339 1 5.72312 23.3928 16.9781
341 1 10.3193 23.6215 17.0073
343 1 15.3389 23.5652 17.6755
260 1 17.7321 20.8961 14.5535
262 1 22.1464 21.3934 15.8786
345 1 19.856 23.5436 18.3937
264 1 26.7771 21.723 16.5355
266 1 31.5611 21.4666 16.8486
338 1 4.10158 26.3875 19.182
5835 1 33.5747 19.3659 14.1465
1751 1 1.30092 28.5392 22.3127
48 1 15.3 21.4526 -4.65293
1689 1 20.2402 28.2736 17.7373
276 1 22.3654 25.6159 15.042
278 1 26.9377 25.7612 16.0721
280 1 31.2689 26.1908 16.7156
5913 1 33.0888 23.8061 19.9476
282 1 3.45182 7.84275 19.7025
347 1 24.3492 23.607 18.761
284 1 8.18733 8.04166 20.2052
286 1 12.623 7.57507 19.4566
288 1 17.6872 8.15414 21.4586
290 1 22.2596 7.8903 21.9518
292 1 26.6702 7.63415 22.9955
1613 1 6.90638 27.8093 10.6639
365 1 1.9761 10.7398 21.9943
296 1 3.94295 12.5353 18.992
348 1 25.9858 26.1122 22.2453
332 1 21.7305 21.652 22.1206
298 1 8.69651 12.2682 19.74
300 1 12.5845 12.6357 20.3897
302 1 17.2473 12.3891 21.0629
304 1 21.7941 12.3821 22.1359
305 1 24.6936 10.1051 19.5221
60 1 10.3701 25.7143 -4.72994
307 1 29.3661 10.4724 19.3462
5874 1 33.7789 9.85993 20.506
379 1 1.25728 14.5519 22.3161
381 1 5.90998 14.8442 22.7474
312 1 8.17096 17.1284 20.0182
314 1 12.9622 17.2366 20.9791
316 1 17.1812 16.7211 21.0694
318 1 21.1272 16.9842 22.1374
320 1 26.1846 16.6174 22.5549
321 1 29.1593 14.9389 19.6944
5887 1 33.2895 14.7245 20.0921
393 1 1.04235 18.7068 22.4939
395 1 5.32719 19.3756 22.9384
331 1 20.0261 19.0327 17.9172
335 1 28.9715 19.2452 19.9326
5900 1 33.6224 18.6147 20.4929
407 1 1.40829 24.242 22.1598
409 1 5.74679 23.9742 22.7161
324 1 3.76239 21.5955 19.7856
326 1 8.48032 21.8676 20.1601
328 1 12.9759 21.0347 20.4572
330 1 17.624 21.4926 20.6709
1545 1 12.5125 28.0814 4.0942
5848 1 33.8214 23.2691 14.1634
1621 1 24.9876 28.1874 12.5508
1549 1 21.1222 28.2155 5.69559
151 1 25.5643 5.4655 6.48782
75 1 12.728 5.63402 -1.86729
217 1 16.1464 5.73794 11.2663
1471 1 3.50686 28.204 -2.59871
1623 1 29.7224 27.867 13.0597
1543 1 7.71446 27.9863 3.76858
1685 1 11.1499 28.1432 16.6054
1541 1 2.93589 28.3602 3.72367
1619 1 20.2834 27.9703 11.6908
1475 1 12.1596 27.9582 -1.5602
283 1 6.14333 5.73198 16.6544
223 1 29.5295 5.98357 13.312
149 1 20.9593 5.67622 5.85939
336 1 30.4381 21.3268 22.8962
1755 1 9.96264 28.1073 22.9492
352 1 3.34551 7.70808 25.2793
354 1 7.9768 8.3279 26.3592
308 1 30.9733 12.567 23.1944
366 1 3.68406 12.8497 25.2029
368 1 7.84049 12.413 26.384
371 1 14.5637 10.6222 24.1021
373 1 19.2623 10.3422 24.8265
375 1 23.9838 10.1953 25.4358
377 1 28.5779 9.73066 26.3855
5939 1 33.18 10.0761 26.6835
505 1 0.646983 10.1721 34.8928
6160 1 34.0618 18.8371 41.5369
385 1 14.6806 15.24 23.722
387 1 18.5395 14.8025 24.7209
389 1 23.8016 14.3444 24.8042
391 1 28.0747 14.7634 26.0315
380 1 2.96028 16.9848 26.0711
382 1 7.55917 16.8389 26.7463
397 1 9.92943 19.1105 23.4739
399 1 14.109 19.3158 24.5143
384 1 11.9493 16.4908 27.387
401 1 19.29 19.6058 24.6081
403 1 24.0009 19.2413 25.0145
405 1 27.8425 19.1158 26.1491
421 1 0.787368 6.08208 28.5802
394 1 2.82502 21.6191 25.5091
411 1 10.1691 23.7933 23.276
396 1 7.30087 21.6537 26.4536
413 1 14.8004 23.7159 23.8897
398 1 12.1008 21.5228 27.0333
415 1 19.1563 23.5994 24.4842
417 1 23.8239 24.2815 25.4531
419 1 28.1702 23.2767 26.1289
5978 1 32.6961 23.3056 26.4243
355 1 10.5439 5.85932 23.2597
408 1 3.06793 26.2426 25.8468
383 1 10.1717 14.94 23.478
410 1 7.78051 25.918 26.3585
412 1 12.1198 26.1381 26.8218
1757 1 14.4277 28.3041 24.0105
1759 1 19.0544 28.1568 24.5186
350 1 30.555 26.0993 23.2359
306 1 27.2068 12.0987 22.924
294 1 30.7261 8.11994 23.2382
356 1 12.135 8.23185 26.3338
358 1 16.5366 8.10509 27.7033
360 1 20.9443 8.10844 28.4063
362 1 26.1092 7.81276 28.5881
364 1 30.5717 8.00531 29.7356
437 1 5.07868 9.57202 29.3202
439 1 9.89731 10.3472 29.816
370 1 12.275 12.3901 26.5898
441 1 13.7111 10.2642 30.3374
372 1 16.7801 12.4158 27.7475
374 1 20.8754 12.2479 27.8684
376 1 25.4343 11.9943 28.5001
378 1 29.8241 11.9745 29.5325
449 1 0.830242 14.4752 28.3893
451 1 5.47851 14.5986 29.1544
453 1 9.75226 14.6976 29.9312
455 1 14.2996 15.0653 30.2302
386 1 16.5877 17.1567 27.5475
390 1 25.5204 17.1751 28.7591
5952 1 32.7341 14.6316 27.0864
392 1 30.1425 16.8166 29.6852
571 1 22.2673 5.91792 43.9025
465 1 4.43668 19.1686 29.0768
467 1 9.02895 19.2972 29.811
469 1 14.1133 19.5415 30.3342
471 1 18.9745 19.5443 30.6929
400 1 16.5071 21.7262 27.9842
388 1 21.5324 16.755 27.8475
5965 1 32.5539 19.3389 26.6568
479 1 4.56411 23.7103 29.2327
481 1 9.29416 24.0084 29.7361
483 1 13.35 23.7808 30.0031
485 1 18.6039 23.7864 30.5417
402 1 21.2579 21.5042 27.7539
404 1 25.6279 21.9188 29.0876
406 1 30.2242 20.9607 29.6681
5926 1 32.7976 5.83853 26.7254
1823 1 4.99411 28.5609 28.891
660 1 0.855811 17.0305 50.8467
1829 1 18.1978 28.1033 30.9716
414 1 16.7384 25.8662 27.648
416 1 21.6575 26.0913 27.6785
418 1 25.8243 26.0807 28.7382
420 1 30.4138 25.9305 29.3754
422 1 2.42686 7.72656 31.9136
424 1 6.98586 7.95427 32.4228
426 1 11.6554 7.52516 32.827
428 1 16.1531 7.90343 34.4072
430 1 20.1082 7.99114 34.6494
700 1 33.2705 26.0331 48.4057
435 1 1.20594 10.6518 28.5338
6056 1 32.8573 6.3192 37.1656
436 1 3.39381 12.0518 31.6889
438 1 7.23992 12.6006 33.2674
507 1 5.16572 10.0072 35.2897
440 1 11.6726 12.2068 33.2555
443 1 18.1671 10.3942 31.2393
442 1 15.7736 12.5955 33.8645
444 1 20.2256 12.5895 34.6728
445 1 22.8292 10.033 31.6736
447 1 27.5589 10.3096 32.3369
6004 1 32.3254 9.77765 32.7601
452 1 6.65545 16.9114 32.9614
454 1 11.6583 16.9134 32.8845
457 1 19.3289 15.0148 30.9374
456 1 16.345 17.3426 33.6424
458 1 21.0033 17.3935 34.3593
459 1 23.0875 14.551 31.5921
461 1 27.0934 14.4342 32.2861
6017 1 31.8462 14.5431 32.7781
450 1 2.43311 16.7656 32.0858
535 1 4.58365 19.2963 34.9893
472 1 20.8063 21.73 33.6405
473 1 23.6064 19.3335 31.1515
475 1 27.5624 19.2227 32.1967
6030 1 32.011 18.695 33.2446
464 1 2.39634 21.394 31.5209
466 1 6.81393 21.4802 32.3601
468 1 11.4668 21.4581 33.2238
470 1 16.1556 21.4438 33.8311
487 1 23.1625 24.0274 31.7409
474 1 24.933 21.2611 35.2444
489 1 27.8072 23.6316 32.6263
6043 1 31.9975 23.5027 33.0375
478 1 2.24494 25.4549 31.8085
480 1 6.84495 26.2921 32.5674
482 1 11.4739 26.2478 33.2468
484 1 15.9645 26.0549 33.3521
486 1 20.4162 26.1452 33.9119
488 1 25.0051 26.1145 35.6564
698 1 26.2645 26.3636 50.126
569 1 17.6591 5.47962 43.482
322 1 30.785 16.837 23.4982
492 1 2.59182 7.57492 38.1458
494 1 7.36908 7.62278 38.6796
633 1 3.48806 5.78544 48.429
1901 1 22.3775 28.1267 37.9399
691 1 7.97332 23.9565 48.4892
432 1 24.8354 7.57649 34.519
434 1 29.5385 7.86266 35.7776
433 1 27.5251 5.74974 32.3476
506 1 1.88322 12.2184 37.8274
508 1 7.20863 12.6572 38.6577
509 1 9.43888 9.95871 35.7923
511 1 13.6391 10.3031 36.3457
513 1 18.2505 10.5377 37.1439
515 1 22.6438 10.1568 37.8086
446 1 25.103 12.2918 35.0432
448 1 29.8394 11.8936 35.9824
517 1 27.2737 10.1533 38.4999
6069 1 33.3798 10.2116 36.9816
521 1 4.7034 14.6965 35.5875
522 1 6.6929 16.9987 39.3294
523 1 9.48459 14.9004 35.578
525 1 13.2389 15.0216 36.876
527 1 17.9914 15.0503 36.8967
529 1 22.1046 14.8442 38.167
531 1 26.6685 14.5752 38.9432
462 1 29.3494 16.5913 35.6933
6082 1 33.285 14.471 36.9348
520 1 2.27614 16.7657 38.4938
536 1 6.95038 21.3689 38.665
537 1 8.88629 19.1794 35.741
539 1 13.6287 19.5192 36.6511
541 1 18.1134 19.4666 37.5297
460 1 24.7559 16.5419 35.7475
543 1 22.3881 19.788 38.1964
545 1 27.4696 19.2106 38.3558
6095 1 33.9191 19.2613 37.5522
534 1 2.19921 21.4241 38.2837
549 1 4.28692 23.7185 35.3033
551 1 9.51144 23.8468 35.5339
538 1 10.8731 21.5663 39.7493
553 1 13.4676 23.6154 36.8315
555 1 18.2377 23.8948 37.151
557 1 22.2767 23.9525 37.675
476 1 29.9995 21.1972 35.659
559 1 27.1 23.7222 38.5075
6108 1 32.9117 23.7275 37.7302
548 1 2.32869 26.2653 38.3897
550 1 6.73159 25.8694 38.8692
552 1 10.8645 26.261 39.2517
693 1 12.7659 24.1536 49.1273
632 1 1.21456 8.11368 50.408
2043 1 29.4251 28.4553 47.3432
490 1 29.3151 26.1889 36.3569
686 1 33.2074 21.339 48.4031
496 1 11.3202 7.75913 39.4637
1833 1 27.7967 28.0187 32.6026
359 1 19.7138 5.93163 24.8551
498 1 15.8977 7.69129 39.7554
500 1 19.7529 7.95209 40.7489
502 1 24.535 8.08388 40.6404
684 1 26.5291 21.5794 50.1715
504 1 30.3505 7.6283 40.3191
577 1 3.36162 10.2258 41.8752
579 1 8.89309 10.1842 42.3557
510 1 11.284 12.4189 39.7181
512 1 15.3936 12.3989 39.9834
514 1 20.2458 12.1789 40.0727
516 1 24.2187 11.8264 41.6167
518 1 30.8163 12.495 40.3296
591 1 4.24113 14.7591 41.7515
524 1 10.833 17.1385 39.453
593 1 8.13523 14.568 42.6314
595 1 12.8 14.9314 43.2934
526 1 15.482 17.1139 40.2409
605 1 4.12765 19.1875 41.6998
607 1 8.73953 19.1686 42.3744
609 1 12.8059 19.3987 43.0652
528 1 19.9094 16.7253 40.6468
530 1 25.2258 16.4626 42.061
615 1 28.6797 18.6658 43.072
532 1 30.5525 16.1932 40.3176
619 1 4.49904 23.8959 41.6726
621 1 8.62978 23.6839 42.342
623 1 12.6728 23.451 43.357
540 1 15.9768 21.5455 40.2318
542 1 20.2011 21.5817 40.8868
544 1 24.9538 21.0931 41.518
629 1 27.7595 23.3265 43.1785
546 1 30.422 21.2248 40.0444
1963 1 4.3014 28.2237 41.2906
689 1 3.37335 24.1086 47.5854
699 1 29.3428 23.9197 47.345
554 1 15.4132 25.9189 40.4716
556 1 19.9197 25.8235 41.0743
558 1 24.0818 25.688 40.6561
560 1 30.7053 25.6949 40.6404
562 1 1.00966 7.36491 44.7396
564 1 5.685 7.6805 44.7963
566 1 10.1825 7.95846 45.47
568 1 14.7162 7.69513 46.4929
570 1 19.9171 7.15379 46.9644
572 1 25.6918 8.05545 45.9332
501 1 22.3988 5.90946 38.1388
574 1 31.6884 7.17092 44.675
576 1 1.41423 12.2775 44.4199
578 1 5.36346 12.1823 45.0127
580 1 10.6068 12.0534 45.1359
581 1 13.4054 10.3291 42.9108
583 1 17.2326 10.1482 43.5321
582 1 15.0255 12.5451 46.3794
585 1 21.8534 10.3504 44.2119
584 1 19.5652 11.8512 46.928
586 1 25.437 11.8887 45.9248
587 1 28.2863 9.87278 43.0295
588 1 31.6248 11.9578 44.85
596 1 15.5093 17.2541 46.0507
597 1 17.5183 14.1476 43.2752
599 1 22.0713 14.3623 43.7456
598 1 19.3053 16.4078 47.0222
601 1 28.1791 14.05 43.2591
590 1 1.49438 16.9524 44.5491
592 1 6.00081 16.9992 45.261
594 1 10.783 16.5886 45.9892
611 1 17.4296 19.0209 43.234
613 1 21.9908 18.9885 44.1414
600 1 25.4669 16.714 45.8298
602 1 31.7449 16.6558 44.8574
604 1 1.84408 21.5755 44.6869
606 1 6.2015 21.1366 45.2004
608 1 10.104 21.8447 45.6396
610 1 15.5288 21.6922 46.3948
625 1 17.4973 23.625 43.8113
627 1 21.7569 23.7007 43.9892
612 1 19.2848 21.083 46.8687
614 1 25.6021 21.439 46.0428
616 1 32.0142 20.8939 44.5996
618 1 1.53723 26.4475 44.3137
620 1 5.67154 26.0328 45.2007
622 1 10.3786 26.5584 45.6363
624 1 14.9267 26.4171 46.5056
357 1 14.4537 5.97992 24.2751
626 1 19.665 25.4629 46.5925
628 1 25.5086 26.1147 45.7905
1895 1 9.18819 28.4111 36.3317
630 1 31.9088 25.4684 44.668
2033 1 2.99036 27.9082 47.9362
688 1 0.318015 25.7877 50.8156
431 1 22.8221 6.05005 31.403
697 1 22.5663 23.6034 48.5798
695 1 17.4296 23.6201 49.2681
672 1 33.719 16.7137 49.5383
641 1 23.4665 5.81 48.6175
642 1 26.3476 7.93616 50.6021
644 1 32.7574 7.87135 49.2418
646 1 1.0945 12.8435 50.496
647 1 3.8449 10.0193 47.6749
649 1 8.04158 9.73485 48.2553
651 1 11.9361 9.91542 49.1103
653 1 16.9418 9.84961 49.443
7226 1 32.8772 28.1149 27.0267
655 1 22.374 9.79592 48.8188
656 1 26.1379 12.4841 50.264
657 1 29.0931 9.93601 47.6595
658 1 32.5342 13.029 49.1711
661 1 3.70159 14.4765 47.7253
663 1 7.92217 14.6511 48.1933
665 1 12.2859 14.6577 49.8049
667 1 16.3572 14.4413 49.7111
669 1 22.9938 14.4158 49.2104
671 1 28.7861 14.3761 47.311
670 1 26.8291 17.1146 50.3599
1893 1 4.66041 27.84 35.3024
675 1 3.31282 19.2367 48.1709
677 1 7.98434 19.2982 48.6613
679 1 12.6797 19.1388 48.5014
681 1 17.0271 19.0115 50.2548
683 1 23.0982 18.9656 48.1047
685 1 28.7306 19.5124 47.8046
1831 1 23.2672 28.0198 31.7633
1761 1 23.912 28.2697 25.4276
2035 1 8.3144 28.3723 48.4877
7291 1 31.8848 28.2296 33.1632
2039 1 17.8374 28.0188 49.1601
1763 1 28.1761 28.2567 25.9598
1897 1 13.9305 27.9817 36.878
674 1 0.798617 21.8344 50.6352
662 1 5.60335 17.0829 51.0632
769 1 30.2809 23.6983 51.2817
919 1 20.7356 5.68521 67.3601
756 1 33.6531 21.8313 53.0647
636 1 10.0733 7.53408 51.8491
638 1 14.5636 7.09865 52.516
682 1 20.8161 21.606 51.4835
712 1 27.914 8.24464 54.6442
1118 1 30.7455 26.1624 78.4099
702 1 0.648716 7.54955 56.336
717 1 3.17836 10.3363 54.0494
648 1 5.54806 12.3029 51.4619
719 1 7.66557 10.2729 55.2072
650 1 9.77231 12.6873 52.0993
652 1 14.1476 12.1491 52.4575
723 1 17.7288 9.76874 53.9359
725 1 24.1474 10.685 53.1548
726 1 27.9555 12.6102 54.4995
727 1 30.2296 10.7662 51.5296
731 1 2.74202 14.6298 54.9009
733 1 7.57981 14.9581 54.6292
664 1 10.2725 17.156 51.8658
666 1 14.4134 17.5234 52.5765
737 1 17.9265 14.6262 54.1059
739 1 24.1058 14.8306 53.3901
741 1 30.3675 14.9074 51.7125
745 1 2.59833 18.8861 53.8493
747 1 7.21339 19.3843 54.5458
917 1 15.1219 5.84708 69.1626
751 1 18.1238 19.3734 54.7028
1007 1 33.9883 10.0648 69.0264
753 1 24.053 18.8219 52.8902
740 1 28.1071 17.276 54.7624
755 1 30.7086 19.2516 51.8433
759 1 3.16818 23.5979 54.2202
761 1 8.30751 24.6052 54.7021
678 1 10.2806 21.8066 51.9111
680 1 14.6229 21.7361 51.9067
765 1 18.0019 24.0682 54.1705
742 1 33.5295 16.9135 53.4265
767 1 24.0173 23.4597 52.91
2249 1 19.9907 28.2967 63.2971
676 1 4.82827 21.5369 51.1034
690 1 5.38206 26.3656 51.624
692 1 10.5031 25.8114 51.8255
694 1 15.0686 26.4855 52.5266
744 1 0.28475 21.4582 56.9689
2175 1 6.87822 28.1369 60.7894
654 1 20.1646 12.8277 51.7103
640 1 20.5556 8.02187 51.6269
915 1 9.07757 6.16018 69.5579
704 1 4.36574 7.78443 57.5396
706 1 9.69554 8.01 58.6381
708 1 15.9755 8.08079 56.5338
696 1 20.532 26.1805 51.8114
710 1 21.8079 7.74186 55.6129
1042 1 13.3405 26.5502 75.6371
782 1 29.2169 8.63983 58.6813
783 1 31.7415 5.89701 56.026
718 1 5.11358 12.206 57.713
720 1 9.61381 12.2405 58.2302
721 1 11.8934 9.97489 55.045
722 1 15.2744 12.5861 56.7305
793 1 19.0256 10.3058 58.4651
724 1 21.785 12.5413 55.5529
795 1 25.4176 10.2533 57.5388
797 1 31.7063 10.6465 56.4159
732 1 4.6981 16.7985 57.556
735 1 11.9164 14.7528 55.6847
736 1 15.0371 16.7365 57.2903
807 1 18.8743 14.3447 58.7029
738 1 21.6754 17.1248 55.5971
809 1 25.1803 14.9877 57.6233
811 1 31.2255 15.264 56.2331
734 1 9.56942 16.8927 58.2812
749 1 11.6488 19.9621 55.3922
821 1 18.2079 18.3853 58.5829
823 1 25.0781 19.6345 57.2871
810 1 28.5677 16.8692 58.5066
825 1 31.7877 19.7199 56.4069
921 1 27.5288 5.84392 66.3388
746 1 4.94997 21.1903 58.0892
748 1 9.80151 21.2987 58.9517
763 1 12.7905 23.6935 55.0294
750 1 15.3327 20.8444 56.4438
835 1 18.6938 23.0208 57.8301
752 1 21.7702 21.6363 55.7143
837 1 25.0808 23.6759 57.6145
754 1 27.963 21.2007 54.4892
824 1 28.995 21.5408 59.0727
839 1 31.1075 24.0841 55.6403
940 1 0.622492 17.429 73.4693
760 1 4.74264 26.0582 58.3187
762 1 9.41416 25.9657 57.9566
1113 1 17.2657 24.0989 77.3293
764 1 15.4863 26.3832 57.0292
2455 1 10.6546 28.1352 77.8918
766 1 21.7157 26.2799 55.7905
768 1 27.5687 25.8072 54.8244
1116 1 26.6861 25.7215 78.1326
1111 1 10.9673 23.5294 78.1934
775 1 9.37916 5.99637 61.8479
705 1 7.85622 5.86435 54.6404
778 1 16.5226 7.8482 61.235
954 1 0.257819 21.5055 73.6872
780 1 22.869 8.45448 60.8501
770 1 33.899 26.0102 53.2268
787 1 1.89867 9.82831 60.3939
789 1 6.64599 10.1177 60.8234
790 1 9.83643 12.4678 62.8648
791 1 13.4423 9.92752 59.5411
792 1 16.5284 11.8101 62.2991
863 1 20.0376 10.3402 63.0146
794 1 22.8884 12.438 59.8055
865 1 26.6088 10.5117 61.771
796 1 28.7126 12.3741 58.6065
867 1 32.8666 10.2706 59.9158
801 1 2.29859 14.6275 60.0408
803 1 6.6713 14.6311 61.3968
805 1 13.1954 14.3867 60.1901
806 1 16.2829 16.8167 61.7676
877 1 20.2156 14.9014 62.6127
808 1 22.545 17.0596 60.0897
879 1 26.3716 14.5756 61.7714
881 1 32.2785 14.9163 60.3426
815 1 2.0004 19.301 60.0265
817 1 6.66415 18.9513 61.1685
804 1 10.4801 16.7619 62.0158
819 1 12.8506 18.9642 59.8159
891 1 19.9037 19.4811 63.0318
893 1 26.212 19.0309 61.8971
880 1 29.8728 17.2411 63.3134
895 1 32.5474 20.1005 60.935
829 1 2.38982 23.8933 60.4563
831 1 7.08696 23.3787 61.0841
818 1 10.2139 22.1298 63.2029
833 1 12.9746 23.4951 59.7307
820 1 16.3124 21.706 61.5891
905 1 19.7496 23.6933 63.5756
822 1 21.9472 21.2084 60.3483
907 1 25.7948 23.7084 61.2897
909 1 32.3106 24.144 60.6159
830 1 4.49455 26.4256 63.5934
832 1 10.3698 26.4419 62.1293
2463 1 33.9644 28.4164 75.697
834 1 16.2409 26.1903 61.3731
836 1 21.6133 25.2268 60.267
838 1 28.5738 26.2786 58.7385
774 1 4.14294 7.43861 63.6879
776 1 11.7431 9.21129 63.2507
848 1 17.8046 8.21707 66.2101
850 1 23.7018 8.09722 64.5081
852 1 30.1143 8.32147 63.3188
1072 1 19.9593 12.4493 78.4993
857 1 1.88941 9.98692 66.2439
788 1 3.85725 12.1402 63.8399
859 1 7.59281 10.0043 65.4908
860 1 11.3294 12.2921 67.129
861 1 14.5966 10.1598 65.736
862 1 17.9209 13.5547 66.1536
864 1 23.4946 12.6013 64.6556
866 1 29.8805 12.6443 64.075
935 1 27.2564 10.4534 66.3819
937 1 33.4548 10.0489 64.396
871 1 0.921319 14.6561 66.1974
802 1 4.00114 17.1938 63.7802
873 1 7.57919 14.7539 65.2451
875 1 14.0388 14.7835 64.1847
876 1 17.4239 17.5185 65.4517
878 1 23.7541 17.1075 64.6222
949 1 27.4931 14.5073 66.3222
951 1 33.5124 14.6362 65.0132
885 1 1.96387 19.0699 66.5834
887 1 7.9197 19.2172 65.0571
889 1 13.4269 19.5344 64.2513
963 1 27.5636 19.3319 66.3755
965 1 33.8751 19.2974 64.519
899 1 1.64158 23.83 66.0253
816 1 4.48165 21.881 64.0742
901 1 7.84997 24.0538 65.4071
888 1 11.5429 21.6169 66.7112
903 1 13.8251 24.3235 63.9916
890 1 17.0955 21.8715 65.8559
892 1 23.9999 21.5512 64.544
894 1 29.4336 21.9132 63.1996
977 1 26.656 24.0222 66.3099
979 1 33.4649 23.9026 64.5352
758 1 1.0808 25.8941 56.5417
902 1 11.3027 26.0424 66.3331
849 1 19.8053 6.42636 62.932
904 1 17.2746 26.3318 65.7573
906 1 23.6 26.1618 64.799
908 1 29.7169 25.9252 63.1826
781 1 25.0589 5.53483 56.8293
1040 1 7.04212 26.0334 76.6078
844 1 5.42104 7.88428 68.0369
1038 1 0.927516 26.2336 78.2572
846 1 11.6045 8.10177 67.0629
918 1 18.6824 7.91214 70.7392
920 1 24.9282 8.40632 69.1322
922 1 30.7578 7.56774 67.7269
927 1 3.11234 10.5699 71.0656
858 1 5.09958 12.6812 68.4593
929 1 8.88496 10.5075 69.9629
931 1 15.2901 10.2638 69.3779
932 1 18.5871 12.4016 70.2056
933 1 21.1287 10.3591 67.7222
934 1 24.8326 12.4626 69.3131
1005 1 28.0451 9.64655 71.0376
936 1 31.2989 12.3438 67.8223
1028 1 13.4993 21.8527 75.5833
941 1 2.63269 15.2505 70.882
874 1 11.5568 16.9449 67.3532
943 1 8.31507 14.5703 69.743
945 1 14.8578 14.6442 68.8303
946 1 18.6005 17.1528 69.6699
947 1 21.4334 14.4084 67.6231
948 1 24.4883 16.9805 69.0319
851 1 26.2585 5.89093 62.7079
950 1 31.2215 17.0703 67.6397
955 1 3.13142 19.9008 70.276
872 1 4.96456 17.3186 68.0174
957 1 9.07782 19.3389 69.594
959 1 15.404 19.4129 68.5505
961 1 20.8509 18.9297 66.825
1033 1 28.2242 19.4883 70.5193
985 1 9.70865 6.16831 74.1465
969 1 2.64245 23.8669 70.8515
886 1 5.28957 21.7496 67.9603
971 1 9.11687 23.6831 69.7379
973 1 14.8451 23.7474 68.4334
960 1 18.7476 21.3736 70.3616
975 1 21.2329 23.3397 67.4536
962 1 24.2834 21.8002 69.1525
1047 1 28.2948 24.1383 70.6573
1102 1 26.2202 21.4754 77.8979
964 1 30.7117 21.7499 67.3698
853 1 32.3901 5.68181 60.5903
900 1 4.86769 26.3024 68.247
2387 1 16.6527 28.3089 73.0905
974 1 18.7197 26.0265 70.185
2391 1 28.4011 28.0239 70.714
976 1 24.3621 26.5673 69.3646
978 1 30.7714 26.0716 67.465
914 1 5.94142 8.20546 72.4593
916 1 12.4652 7.8459 71.6959
988 1 19.1417 7.67524 74.7694
990 1 25.7995 7.90552 73.9499
992 1 31.9673 7.29025 72.2715
997 1 3.73176 10.1123 75.2158
928 1 6.17849 13.0103 73.0539
999 1 9.70394 10.0875 74.7515
930 1 12.8863 12.5769 71.6406
1001 1 15.8699 10.5605 73.4441
1002 1 20.0133 12.2588 74.5581
1003 1 21.9147 9.77619 72.3798
1004 1 25.9578 12.5217 72.9376
1006 1 31.8082 12.5984 72.5743
1011 1 2.99401 14.7173 74.6904
1013 1 9.94331 14.98 74.3523
944 1 12.6803 16.6883 71.249
1015 1 16.4031 14.6349 72.9659
1017 1 21.9883 15.0074 71.9504
1016 1 19.4547 16.6656 74.1222
1018 1 26.0281 16.6991 73.4848
1019 1 28.1274 14.6966 70.0047
1020 1 32.1208 17.3526 72.1193
942 1 6.68314 17.51 72.3466
1027 1 10.4046 19.3574 74.2534
1029 1 16.1451 19.2196 73.2427
1031 1 22.3616 19.6731 72.5132
1034 1 31.8289 22.095 71.7354
1039 1 4.00096 24.0097 75.3876
956 1 6.38289 21.1775 72.3542
1041 1 10.4145 24.8419 73.8978
958 1 12.7181 21.7271 71.1251
1043 1 16.0253 23.9696 73.3376
1030 1 19.7775 21.3593 74.7421
1045 1 21.8234 24.5274 72.0106
1032 1 25.8803 21.3814 73.7831
1117 1 29.0594 24.0478 75.6788
970 1 6.09781 25.7774 72.6952
972 1 12.7377 26.528 71.1388
1115 1 23.0699 23.4863 76.2709
1044 1 19.559 25.9832 74.7537
1046 1 26.1325 26.2039 73.5908
1048 1 31.9764 26.4573 72.0591
982 1 1.012 8.05383 78.5965
984 1 7.38587 8.16225 77.2398
2323 1 33.4782 28.1445 65.2247
986 1 13.3584 7.23655 76.229
1060 1 26.698 7.46896 78.4916
989 1 22.2672 5.95006 71.6918
1083 1 10.5702 15.1155 78.6115
1062 1 31.266 7.08419 78.0531
996 1 1.06399 12.621 78.3435
998 1 7.36863 12.4749 77.4117
2177 1 13.1259 28.2732 59.4577
1000 1 13.4577 12.473 76.1171
1071 1 17.1901 9.98968 77.0448
1073 1 23.5308 10.2371 76.3169
1074 1 26.8772 11.8932 77.6299
1075 1 29.1098 9.81816 74.9835
1076 1 30.798 12.2742 78.263
1010 1 1.46302 17.1712 78.1596
1012 1 6.83638 16.6389 76.9602
1014 1 13.3059 17.0015 75.9454
1085 1 16.4388 14.6284 76.9571
1087 1 23.0222 14.1264 75.9655
1089 1 29.2654 14.7766 74.6231
1091 1 33.7352 14.2482 75.6117
1025 1 3.80078 19.3099 74.8601
1097 1 10.7199 19.7269 78.8734
1099 1 17.1893 19.3535 77.0604
1101 1 22.9167 18.8076 76.2572
1088 1 26.7659 16.9481 77.7963
1103 1 29.4763 19.5919 75.0353
1105 1 33.6696 19.0131 75.8903
1090 1 31.4905 16.7914 78.1266
1024 1 1.29621 21.7778 77.4236
1026 1 7.46518 22.2026 76.6886
1077 1 33.4851 10.4769 75.6632
779 1 19.3 5.74803 58.3731
2183 1 31.6351 28.062 56.1234
2113 1 29.5235 28.3061 51.9652
2105 1 7.25403 28.1917 54.5933
728 1 34.0088 12.3584 53.5792
1086 1 20.5648 16.9694 79.0385
2103 1 2.73207 28.2046 53.6596
1100 1 20.3144 20.9479 78.6644