ITEM: TIMESTEP
402000
ITEM: NUMBER OF ATOMS
16000
ITEM: BOX BOUNDS pp pp pp
2.9975666759777653e-01 1.0190024333240541e+02
5.7267891071605632e+00 9.6473210892832853e+01
-5.1321559293371664e+00 1.0733215592933537e+02
ITEM: ATOMS id type x y z
10878 1 0.700374 8.377 -0.316875
367 1 5.46918 9.77324 22.8177
215 1 11.3849 5.78847 10.6394
8 1 19.0991 8.2379 -3.50728
10 1 23.6575 8.00896 -3.16957
12 1 28.7494 7.62954 -3.14143
14 1 32.9065 7.37302 -2.31911
85 1 3.37085 10.25 -3.14861
87 1 8.00071 10.3593 -2.26869
89 1 12.4803 10.5457 -1.13117
20 1 14.552 11.8285 -4.63666
22 1 19.1721 12.3367 -3.95886
24 1 23.9685 12.7649 -3.4082
26 1 28.1307 12.1233 -2.90487
28 1 33.1794 12.4645 -2.18335
99 1 3.12789 14.8626 -2.73629
101 1 8.81326 15.3237 -2.67387
381 1 5.70387 14.2013 22.4259
103 1 12.6168 14.9691 -1.81635
38 1 23.4021 16.403 -3.24709
40 1 28.4349 16.6674 -2.76129
113 1 2.58009 19.2824 -2.87965
115 1 8.10441 19.3656 -2.19186
117 1 12.6051 19.4667 -2.54701
11034 1 0.439657 16.8863 12.3183
36 1 19.4808 17.11 -4.03512
42 1 32.9083 16.8365 -1.54458
127 1 3.65789 23.6537 -2.75304
129 1 8.21754 23.5464 -2.30429
145 1 11.6896 6.34147 4.15916
48 1 14.8837 21.8903 -5.00243
50 1 19.272 21.7265 -3.99194
52 1 23.6825 21.8711 -3.53656
54 1 28.9091 20.8796 -2.7253
56 1 32.8357 21.0848 -2.13254
143 1 6.95839 5.81337 3.86804
293 1 28.9016 5.86707 19.0662
141 1 3.12428 5.79902 3.19209
62 1 14.8486 26.5772 -5.36653
64 1 19.3261 26.4964 -3.70188
66 1 24.2825 26.0062 -3.11164
68 1 28.6414 26.3479 -2.91413
70 1 33.0072 25.7724 -1.65862
285 1 10.6907 6.111 17.2089
34 1 15.1566 17.0887 -4.96461
72 1 5.51985 8.3358 0.10945
74 1 9.98172 8.69642 1.27446
76 1 14.4206 7.88051 1.53878
395 1 5.89319 19.0262 22.7077
10891 1 0.336378 12.2322 -0.267775
79 1 21.563 5.88634 -0.270871
86 1 5.80076 12.9408 -0.0505346
88 1 10.03 13.032 1.29903
90 1 14.7852 12.6471 2.01165
91 1 17.1328 10.487 -1.094
92 1 18.7381 12.5268 2.33035
93 1 21.799 10.5493 -0.408792
95 1 26.1675 10.3198 -0.123855
97 1 30.2578 10.1537 0.433425
409 1 5.91987 23.6232 22.6077
100 1 5.82527 17.5351 0.232677
105 1 16.7391 14.5221 -1.05145
107 1 21.0242 14.5711 -0.2962
109 1 25.9971 14.5341 0.346061
111 1 29.8973 14.7918 0.111894
102 1 9.87262 17.5349 1.28974
104 1 14.6004 17.3401 1.46602
119 1 17.1256 19.5748 -1.76352
121 1 21.2653 19.2935 -0.190734
123 1 25.6738 19.1331 0.283602
125 1 30.0889 19.3023 0.872139
10917 1 0.663204 21.041 -0.233449
114 1 5.18613 21.6199 0.203607
116 1 9.80857 21.3728 0.894314
131 1 12.0587 24.2098 -2.11634
118 1 14.3124 21.6965 1.22761
133 1 17.136 23.848 -0.42272
135 1 21.8044 23.8858 -0.719611
137 1 26.1581 23.6372 0.00694241
139 1 30.4802 23.8236 0.683475
10930 1 0.850309 26.1589 -0.289177
128 1 5.60952 26.4173 0.335021
130 1 9.8628 26.5422 1.02844
5848 1 33.3667 24.248 13.7181
6 1 14.5012 7.75495 -4.23131
4 1 10.578 8.5694 -5.00379
5796 1 33.7995 5.96837 13.8458
10982 1 0.529494 21.3917 6.06594
289 1 20.2532 6.26807 18.3821
78 1 19.0493 7.99322 2.66598
80 1 24.0675 7.96392 2.92475
82 1 28.621 7.81068 3.22249
84 1 32.5596 7.99089 3.93496
155 1 3.4191 10.4499 2.91698
157 1 7.4581 10.4693 3.538
159 1 12.1813 10.5017 4.64017
161 1 16.1717 9.94465 5.45463
163 1 21.3095 9.91264 6.35864
94 1 23.0168 12.3501 2.77274
96 1 27.7345 12.3421 3.74314
98 1 32.3584 12.6375 3.9058
169 1 2.59198 15.1466 2.83496
171 1 7.13851 14.7788 3.57294
173 1 11.8592 15.0517 4.29634
175 1 16.3683 14.5435 5.89085
108 1 23.0816 16.8492 2.84644
110 1 27.9151 17.0103 3.57802
183 1 2.58452 19.1454 3.48657
185 1 6.86606 18.7521 3.63625
187 1 11.7423 19.4238 4.55505
189 1 15.8212 19.1985 5.52666
106 1 18.3891 16.8727 2.5086
112 1 32.5018 16.6677 4.38876
197 1 3.22141 23.7011 2.95108
199 1 7.31485 23.486 3.82081
201 1 11.5605 23.5612 4.53428
203 1 16.2063 23.3537 5.27766
120 1 18.6604 21.074 2.20566
122 1 23.2839 21.2568 2.49057
124 1 27.7065 21.6844 3.18235
126 1 32.514 21.4137 4.00321
5835 1 34.0325 19.4637 14.2014
132 1 14.5113 25.6727 1.46743
134 1 18.9787 25.8554 2.62197
1623 1 29.25 28.3601 13.2542
136 1 23.5008 26.0352 3.18571
138 1 27.6666 26.3448 3.43069
140 1 32.2768 26.3146 3.85308
1541 1 3.29574 28.3309 3.08502
142 1 4.68122 7.57688 6.23013
144 1 9.06502 8.11957 7.3258
146 1 13.6435 7.96556 8.20952
148 1 18.0924 7.5793 9.03635
150 1 22.8332 8.66245 9.72156
348 1 26.2695 26.6025 22.2688
156 1 4.30133 12.2087 6.13775
158 1 9.08346 12.6819 7.28185
160 1 13.3697 12.7136 8.07892
162 1 18.7326 12.0004 8.66067
165 1 25.2692 10.0666 6.21571
167 1 29.837 10.6211 6.8843
239 1 2.28407 14.6557 8.49196
174 1 13.3221 16.972 8.27666
177 1 20.7905 14.6423 6.0285
179 1 25.0367 15.291 5.89535
178 1 22.9185 16.9877 9.33006
181 1 29.4696 14.9093 7.37775
170 1 4.36071 16.8616 5.97134
172 1 9.04795 17.0142 7.48836
176 1 18.3363 16.6782 8.62437
191 1 20.4057 19.0631 5.11346
193 1 25.0866 19.4466 6.21344
195 1 29.9267 19.4967 6.85621
184 1 4.4009 21.4104 6.85715
186 1 9.10525 21.4467 7.49044
188 1 13.7843 21.6618 8.14453
190 1 18.5664 21.3449 8.73491
205 1 20.9224 23.3345 5.88851
207 1 25.2921 23.7785 6.13746
192 1 23.073 21.8384 9.82072
209 1 29.8561 24.1509 6.77509
198 1 4.96306 25.8419 6.84189
200 1 9.04052 26.2868 7.3242
202 1 13.7267 25.7719 8.34816
204 1 18.1387 25.8126 8.92649
206 1 22.6847 25.8228 9.32539
346 1 21.6351 26.3515 22.093
153 1 29.9635 5.85864 7.37761
5783 1 33.9895 23.6714 7.77019
149 1 21.3577 5.9118 6.2639
10904 1 0.730967 16.7707 -0.196237
1615 1 11.4805 28.1482 11.0253
344 1 17.2934 26.5144 20.9107
152 1 27.4938 7.62775 9.67857
154 1 31.6662 8.19059 9.9591
225 1 2.03579 10.8074 9.38947
227 1 5.77675 10.7148 9.36122
229 1 11.0934 10.4513 10.8498
231 1 15.7744 9.81197 11.4721
233 1 20.3574 9.83632 12.5094
164 1 22.883 12.6426 9.11511
166 1 27.4565 12.4704 9.596
168 1 32.0889 12.4894 11.0603
241 1 5.71659 14.6171 9.77327
243 1 11.377 14.8337 10.8774
245 1 15.6856 14.1259 11.5575
247 1 20.1619 14.7525 12.1949
180 1 27.1587 17.0266 9.72037
182 1 32.3234 16.8252 10.4334
253 1 2.47603 19.3395 9.69114
255 1 6.89202 19.1753 10.0248
257 1 11.506 19.3172 10.7274
259 1 15.9586 19.395 11.4104
261 1 19.8796 19.443 12.2587
263 1 25.1284 19.1087 12.7436
267 1 2.59356 23.8427 9.6757
269 1 7.18105 23.5977 10.1118
271 1 11.6244 23.38 11.4067
273 1 15.9086 23.8805 11.6356
275 1 20.2282 23.8896 12.8286
277 1 24.9201 23.5994 12.562
194 1 27.5747 21.5304 9.53049
196 1 31.8686 21.5247 10.4597
1619 1 20.8538 28.4682 11.8917
5822 1 33.887 14.7056 14.0118
5913 1 32.8424 24.405 19.8906
208 1 27.0641 26.0299 9.68976
210 1 31.757 25.7582 10.2556
342 1 12.872 26.6959 19.9835
212 1 3.98772 8.78798 12.1818
214 1 8.67264 7.34807 13.216
216 1 12.9412 7.97642 14.5325
218 1 17.5702 7.20258 14.8796
220 1 22.154 8.02883 15.5415
334 1 26.4306 21.9949 22.3674
295 1 1.40641 10.5848 15.4647
226 1 4.26817 12.5075 13.029
297 1 6.20762 9.958 16.2233
228 1 9.07181 12.0766 14.0597
230 1 13.038 12.1904 14.5561
232 1 17.7381 11.9741 14.704
235 1 24.6536 10.3356 12.6146
234 1 21.9779 12.6222 15.8912
237 1 29.0398 10.1124 13.2286
236 1 26.7281 12.0756 16.3142
2 1 6.1203 8.19623 -5.00566
309 1 1.75717 15.161 15.6152
248 1 22.1967 17.356 15.5337
249 1 24.9096 14.6273 12.8745
251 1 29.4833 14.3831 13.1243
323 1 2.22074 18.7387 16.4311
240 1 4.20845 17.012 13.1368
242 1 8.95301 16.5354 13.9751
244 1 13.638 16.7674 14.6619
246 1 17.9233 16.8029 14.8642
265 1 29.3294 19.009 13.2741
337 1 0.874106 23.616 15.1273
254 1 4.50629 21.2971 13.3567
256 1 9.13977 20.999 13.691
258 1 13.8317 21.5475 14.1556
260 1 18.2273 21.5874 15.2077
262 1 22.4179 21.4349 15.5644
264 1 27.0202 21.9846 16.0472
279 1 29.1152 23.7255 13.5412
268 1 4.07027 25.6488 12.6858
270 1 9.05218 26.2216 13.4813
272 1 13.3449 26.1337 14.6753
274 1 18.0367 26.3517 15.0579
276 1 22.8172 26.1613 15.9812
75 1 11.9667 5.90827 -1.54438
278 1 26.7446 26.5258 16.6143
282 1 3.77151 8.01859 18.6185
1683 1 6.36728 28.0344 15.3963
284 1 8.17244 7.77372 19.6525
294 1 31.3216 7.18022 22.7572
222 1 26.6825 7.71199 16.4368
224 1 31.5579 8.15846 16.5046
296 1 4.14876 12.6221 18.68
298 1 8.30105 12.369 19.9146
299 1 10.7689 10.1304 17.9527
301 1 15.5671 10.2562 17.6449
303 1 20.1878 10.7698 18.7183
305 1 24.6021 10.1938 18.9964
307 1 29.1259 9.82346 19.8946
238 1 31.2442 12.7451 17.1635
311 1 6.61213 14.9855 16.5596
313 1 11.3407 14.7172 17.1737
315 1 16.0577 14.8359 17.5707
317 1 19.8362 14.7986 18.6491
319 1 24.1343 15.1729 18.5641
321 1 28.5874 14.4298 19.4966
325 1 6.6616 19.3932 16.4651
327 1 10.7514 19.4735 16.9839
329 1 15.5187 19.0868 17.0568
331 1 20.2886 19.3197 18.1179
333 1 24.3294 19.56 19.1358
250 1 26.8797 16.8533 16.3857
335 1 28.1992 19.0646 19.7248
252 1 31.5587 16.9635 16.7982
324 1 3.73641 21.2095 19.262
339 1 6.44319 23.978 16.2877
341 1 11.154 23.9375 16.9775
343 1 15.2215 23.5514 17.7807
345 1 20.471 24.0241 18.2731
347 1 24.4988 24.1935 18.7628
349 1 28.9766 23.9885 19.8329
266 1 31.5237 21.7794 16.4864
338 1 3.3679 25.8913 18.5502
1681 1 1.77159 28.2262 15.3485
1753 1 5.83268 27.6242 22.2641
328 1 13.0314 21.8274 20.0974
340 1 8.25233 26.4032 19.6442
1479 1 21.37 28.3238 -0.468475
1751 1 1.2965 28.1352 21.8967
280 1 31.4774 26.2119 16.6722
1613 1 6.81885 28.2726 9.96729
286 1 12.9596 7.56308 20.2746
288 1 17.4213 8.05668 21.3898
290 1 22.0774 8.08835 22.0852
292 1 26.8065 7.99647 22.6176
353 1 5.89724 5.90154 22.082
365 1 1.33184 10.1837 21.6158
332 1 21.6936 22.0339 22.0116
300 1 12.8132 12.7761 20.3895
302 1 17.1532 12.763 21.7532
304 1 22.7998 12.6873 21.9538
306 1 26.6076 12.0948 22.927
336 1 30.2187 21.7995 22.8428
5874 1 33.4034 10.1071 20.3783
379 1 1.69865 14.8004 22.1548
330 1 17.1531 21.7721 20.5607
1621 1 24.7331 28.2137 12.8157
312 1 8.20396 17.1896 20.2686
314 1 12.7535 17.1146 20.3194
318 1 22.0951 17.3915 21.8211
211 1 2.4568 6.07807 9.53342
5887 1 33.2556 14.1869 20.2117
310 1 3.85016 17.0627 19.4999
393 1 0.745801 19.4174 21.6521
316 1 17.4474 16.9423 21.2288
320 1 25.759 16.4039 22.4382
5900 1 32.9071 18.9324 19.9241
407 1 1.00775 23.9445 22.2191
326 1 8.3774 21.7613 19.0807
1549 1 21.3814 28.3953 5.49658
1547 1 16.6819 27.5481 5.13462
1545 1 12.1115 28.2381 4.58356
281 1 1.93918 5.97964 15.4005
1543 1 7.93728 28.2174 3.97244
352 1 3.11339 7.97381 25.5045
356 1 12.2434 7.50163 26.6662
425 1 9.54338 5.90465 30.0317
5939 1 32.906 9.74988 26.5261
366 1 3.55418 13.1616 25.5844
368 1 7.85898 11.9697 25.5038
369 1 10.1985 9.98365 23.1498
371 1 14.7749 10.1265 23.6123
373 1 19.2068 10.6314 24.6475
375 1 24.2428 10.4264 25.6111
377 1 28.1223 9.85193 26.6078
385 1 14.9044 14.9785 24.0252
384 1 12.1467 16.8691 26.6574
387 1 19.526 14.5758 24.1378
389 1 23.9116 15.2098 25.3979
391 1 28.6053 14.341 25.8073
5952 1 33.0534 15.1337 26.4391
380 1 3.17839 16.9653 25.6687
641 1 22.911 5.85061 48.3721
382 1 7.85251 16.592 25.6453
397 1 10.1869 19.7236 23.2645
399 1 14.6649 19.7508 23.776
401 1 18.6016 19.3978 24.3034
403 1 23.8611 20.2055 24.847
405 1 28.2368 20.0118 25.768
5965 1 32.2805 19.4449 26.4304
394 1 3.49045 20.8961 25.1302
396 1 7.6042 21.3363 25.3492
435 1 0.618578 10.3906 27.8599
411 1 10.4625 24.4056 23.1751
413 1 14.5665 23.9015 23.7373
415 1 19.2602 23.9742 24.4099
417 1 23.876 23.9737 25.4616
419 1 28.0246 24.0253 26.2888
359 1 19.2966 6.28884 24.7842
5978 1 31.6957 23.9589 26.7756
408 1 3.3099 25.5808 25.583
410 1 7.72802 25.6207 26.2733
505 1 0.786823 10.1763 34.5409
569 1 16.7809 5.65376 43.3883
696 1 20.4042 26.3935 50.8397
383 1 10.4702 14.5019 23.564
354 1 7.81027 7.65991 26.2804
632 1 0.731705 7.23176 50.4274
358 1 16.3667 8.172 27.1379
360 1 21.574 8.45754 28.0175
362 1 25.9271 7.91018 29.204
364 1 30.7857 7.79447 29.229
700 1 33.2574 25.9697 48.4297
437 1 5.18292 10.526 28.8729
439 1 9.9174 9.66336 29.8552
370 1 12.2492 12.0147 26.9317
372 1 16.8023 12.744 27.3756
374 1 21.3776 13.0436 28.2926
376 1 26.1207 12.6471 28.7125
378 1 31.0285 12.353 29.3091
571 1 21.3091 5.81212 43.7981
449 1 0.479225 15.1784 28.678
451 1 5.46089 15.2521 29.232
453 1 9.92136 14.3089 29.2386
386 1 16.9775 17.4999 27.0623
388 1 21.198 17.3655 27.5739
573 1 28.0077 6.06424 42.5851
465 1 5.20351 19.5241 28.9217
467 1 8.84965 18.2591 29.0378
390 1 25.8093 16.9499 28.1994
392 1 30.3955 17.0333 28.7465
477 1 0.579905 23.7578 27.7563
479 1 5.07854 23.5028 28.7823
481 1 9.64981 23.7135 29.4583
398 1 11.6366 21.6516 26.7568
400 1 16.3028 22.0823 27.4927
402 1 21.0543 21.5124 27.9584
404 1 25.9165 21.6586 29.1058
406 1 30.0955 21.6914 29.7345
1821 1 0.363 27.9408 28.2436
1973 1 27.9841 27.775 42.4702
412 1 12.4751 26.3466 26.9598
414 1 17.0903 26.6921 27.5873
416 1 21.5177 26.2235 28.4278
418 1 26.2744 26.3937 28.7044
420 1 30.0764 26.8176 29.3609
422 1 2.45344 8.49083 31.4279
424 1 6.86938 8.31917 32.5255
426 1 12.1793 7.90756 33.2004
428 1 16.1129 8.20093 33.4985
322 1 30.3706 16.6653 23.1516
436 1 3.06031 12.9534 31.5797
438 1 7.49193 12.8642 32.3378
440 1 11.5898 12.5507 33.3058
441 1 14.5174 10.1433 30.4715
443 1 18.5714 10.5675 31.015
445 1 23.6772 10.7483 31.9357
447 1 27.7935 10.1638 31.9647
6004 1 32.4028 9.60169 32.512
452 1 7.31754 17.517 32.4714
455 1 14.3899 14.8414 30.006
457 1 19.0322 15.2686 30.9319
459 1 23.5309 15.5175 31.3969
461 1 27.9243 14.6907 31.8656
6017 1 31.9278 14.504 32.5129
450 1 2.64884 17.546 32.2233
469 1 13.7474 19.4362 30.1867
454 1 11.4967 16.9369 32.8965
471 1 18.2044 19.3239 30.6518
473 1 23.2784 19.4609 31.4726
475 1 28.2263 19.2345 32.3269
6030 1 32.9291 18.8982 32.2035
464 1 2.33469 21.6022 31.4907
466 1 7.05439 21.6565 32.7492
468 1 11.5701 21.3798 32.9432
483 1 14.2338 23.7589 30.1793
470 1 16.3545 21.4515 33.5351
485 1 19.219 23.9628 30.7605
487 1 23.5338 23.8825 31.1968
489 1 28.1941 23.6616 32.5321
6043 1 32.797 23.9141 31.8611
478 1 2.40383 25.8624 31.1739
480 1 6.9687 26.6446 32.0298
565 1 8.61491 5.6046 42.1196
463 1 0.656332 19.1765 28.6324
519 1 0.86561 14.8812 35.2749
2039 1 17.3201 28.4703 49.1078
430 1 20.8354 8.0631 34.2089
432 1 25.3969 7.77228 35.2232
434 1 29.4769 7.67462 35.5243
507 1 4.4915 10.6626 35.1999
509 1 9.13845 9.99373 36.0023
511 1 13.7601 10.447 36.8274
442 1 16.4198 12.6984 33.7243
513 1 18.4502 10.2734 37.019
444 1 20.7938 13.1184 33.579
446 1 25.8295 12.422 34.5449
448 1 29.9749 12.4407 35.5069
521 1 4.67232 15.5682 35.9339
523 1 9.32234 14.8448 35.5372
525 1 13.748 15.1327 36.3822
6082 1 33.8887 14.8856 37.566
535 1 4.6526 19.5695 35.2355
537 1 9.1531 19.7074 36.6636
539 1 13.8404 19.6403 36.6547
456 1 16.0534 17.2784 33.8803
458 1 20.5292 17.8825 34.2809
460 1 25.0228 16.8044 34.8139
462 1 29.9028 17.0212 35.2617
549 1 4.59365 24.035 34.5976
551 1 8.93774 23.9222 35.2507
553 1 13.4318 23.4611 36.0389
555 1 18.104 23.655 36.2242
472 1 20.8672 21.7208 33.5894
474 1 25.0641 21.6251 35.0521
476 1 29.8339 21.6328 35.0237
1969 1 17.4863 27.8223 43.3778
1823 1 5.16882 28.3362 28.2273
482 1 11.6853 26.0304 32.9234
484 1 16.5112 26.7512 33.1899
486 1 21.1376 25.9761 33.7054
488 1 25.5182 26.3972 34.9876
490 1 30.0324 26.3171 35.8656
492 1 1.8248 8.17556 37.8306
494 1 6.23559 8.48937 37.9603
496 1 10.8674 7.99907 38.7933
498 1 15.3748 7.72785 40.2614
500 1 19.8327 7.83197 40.5679
502 1 24.474 8.67966 41.0068
686 1 32.64 21.2361 48.3664
431 1 23.2729 6.12827 31.5312
504 1 31.357 8.34166 39.7544
506 1 1.80756 12.8686 38.4193
508 1 6.53828 13.1123 38.4062
510 1 10.9325 12.7646 38.4361
512 1 15.3287 12.3869 39.839
515 1 22.3138 10.5166 37.4016
514 1 19.9052 12.2699 40.8821
517 1 26.9082 10.2237 38.2848
518 1 31.2702 12.7025 40.6245
6069 1 33.1475 10.4768 37.0666
520 1 2.16936 17.3462 39.069
522 1 6.80537 17.5614 38.6946
524 1 11.2543 16.5034 39.0475
527 1 18.3663 14.8411 37.2659
528 1 20.3787 17.0576 40.9567
529 1 22.9809 14.4463 37.5609
531 1 27.5312 14.5562 38.3828
532 1 30.9277 16.5123 39.9188
541 1 18.4628 19.6779 37.2587
526 1 15.7809 17.0552 40.3492
543 1 22.2472 19.0854 37.7901
530 1 24.8412 17.472 41.2649
545 1 27.0109 19.6487 37.7278
6095 1 32.979 18.8309 36.9377
534 1 2.16365 21.9575 37.629
536 1 6.23826 21.779 38.5423
538 1 11.4513 22.1296 39.2114
540 1 15.5964 22.0083 39.5073
557 1 22.7598 23.6474 37.6769
559 1 27.5615 24.2617 38.0577
6108 1 33.164 23.4332 36.9946
546 1 30.9595 21.3702 39.5528
548 1 2.11518 26.7859 38.1403
550 1 6.76719 26.1335 38.7254
552 1 11.278 26.3367 38.3389
698 1 26.8501 25.785 49.6893
567 1 12.8711 6.14234 42.1751
554 1 15.4169 26.0004 39.3825
690 1 5.36324 25.9137 50.9997
556 1 20.0905 26.2935 39.5538
308 1 30.9258 12.0408 23.6215
560 1 30.5764 25.9743 39.5146
562 1 1.50687 8.13588 44.6311
684 1 26.9096 21.8029 49.2518
577 1 4.34098 10.4884 41.5698
579 1 8.52349 10.4914 41.7445
581 1 12.6058 10.2415 42.6381
583 1 17.6673 9.83154 43.3368
585 1 22.1307 10.8019 44.2912
516 1 24.5872 12.8428 41.2855
587 1 28.4922 10.4521 42.6617
591 1 4.30269 14.9464 41.7958
593 1 8.18915 14.6393 42.2447
595 1 13.0671 14.3112 42.3238
597 1 17.3992 14.4484 43.1293
601 1 28.5513 14.9632 42.6164
605 1 4.26757 19.0687 41.9457
607 1 8.72294 19.2279 41.9015
609 1 13.0312 19.1192 42.513
611 1 17.7035 18.9334 43.3409
613 1 22.4398 19.7093 44.2811
615 1 28.3618 18.9131 43.0778
619 1 4.10458 24.4683 41.1016
621 1 8.91585 24.1489 41.5763
623 1 12.8651 23.5705 42.1719
625 1 17.7769 23.6138 42.7907
542 1 20.0182 21.5458 40.4451
627 1 21.8366 23.6996 43.2967
544 1 25.0375 21.3092 41.0201
629 1 28.1459 23.6015 42.3138
1825 1 9.67796 28.2508 29.3621
697 1 23.4151 24.3519 47.6941
635 1 7.46839 5.81813 48.1661
558 1 24.4475 25.9444 41.2551
630 1 31.5786 26.0426 44.4473
695 1 17.2372 24.0372 49.6549
564 1 6.00284 7.93348 45.1186
566 1 10.5451 7.82176 45.019
568 1 14.9567 8.20745 46.0359
570 1 19.4495 7.96766 46.7426
572 1 25.3149 8.14348 44.917
693 1 13.0594 23.5942 48.697
574 1 31.8354 7.73016 44.4744
576 1 1.27236 12.5068 44.3926
647 1 2.78325 9.84308 47.8832
578 1 5.74585 11.8707 45.0552
580 1 10.459 12.1993 45.5919
582 1 14.8595 12.0579 46.0198
584 1 19.4692 12.7613 46.2781
586 1 26.2693 12.2362 45.6191
657 1 28.9804 10.1596 47.0574
588 1 32.1619 12.5253 44.536
590 1 1.44293 17.2909 44.6595
599 1 21.9874 14.5996 43.815
671 1 29.2683 14.9146 47.3664
602 1 32.0044 17.2146 44.4596
592 1 5.96238 16.8606 44.954
594 1 10.6716 16.919 45.5156
596 1 14.5361 16.7818 45.805
598 1 19.8541 16.4329 46.7201
600 1 25.5623 17.2233 45.5411
685 1 29.2284 19.0654 46.8838
604 1 1.81676 21.97 44.2926
606 1 6.42193 21.6716 45.3552
608 1 10.4563 21.7733 45.3867
610 1 15.1421 21.3399 45.7542
612 1 19.4699 21.2785 45.9961
614 1 25.5259 21.6501 45.4535
699 1 29.246 23.7617 46.304
616 1 32.0357 21.6868 44.3139
618 1 1.63084 26.5999 44.0423
620 1 6.33479 26.3524 44.8866
622 1 10.5409 26.5297 45.1433
624 1 15.1719 25.9009 45.9071
626 1 19.6628 25.6805 46.9184
628 1 25.4904 26.3271 45.1347
350 1 30.6315 26.8624 23.3973
654 1 20.1249 13.0285 50.9218
363 1 28.5009 6.07194 25.5877
691 1 8.31832 24.3899 48.7335
688 1 1.24704 26.3933 50.0054
642 1 26.5826 8.18225 49.6047
644 1 32.8092 8.00981 48.5052
646 1 0.766497 12.0812 51.0565
563 1 4.02306 6.14459 41.2166
649 1 8.06793 9.75528 48.3388
651 1 12.8115 10.0731 48.7262
653 1 17.3975 10.1232 49.4924
497 1 13.3841 5.75083 36.4287
655 1 23.1755 10.5858 48.7876
656 1 26.6905 12.1555 49.8934
658 1 32.5211 12.3299 48.663
661 1 3.34671 14.544 48.0247
663 1 7.88403 14.5125 48.3808
665 1 12.6707 14.7737 49.2741
667 1 16.6317 14.6972 49.3798
669 1 23.259 14.8819 48.1234
670 1 26.8796 17.0066 49.6683
675 1 4.03153 19.5657 47.7282
660 1 1.05737 17.4224 50.9023
677 1 8.60419 19.1245 48.7808
679 1 12.4186 19.5807 48.8108
681 1 17.0741 19.467 48.9578
683 1 22.704 19.5727 48.5398
672 1 32.9026 17.1212 49.0357
674 1 1.26402 22.0284 50.2494
689 1 3.8457 24.0079 47.0936
1901 1 22.7095 28.3068 37.2843
1971 1 21.8545 28.5796 43.9293
634 1 5.4483 7.63288 51.0461
1899 1 17.8731 28.4677 36.1784
2043 1 29.408 28.222 46.7511
493 1 4.32516 6.09718 35.4272
1755 1 10.3479 28.3776 23.2403
639 1 17.0154 5.99268 49.3907
1967 1 13.2985 27.956 42.2968
503 1 27.3754 5.84375 38.7047
1761 1 23.6253 28.3209 25.7492
1897 1 14.0066 28.2516 36.039
1757 1 15.0655 28.2057 23.6346
1759 1 18.9028 27.9578 24.3147
2037 1 12.4219 28.2483 49.1521
6056 1 33.376 5.74255 37.0694
5991 1 31.5889 5.60869 32.2684
429 1 18.7071 5.9927 30.3843
423 1 5.61574 6.02847 29.2513
648 1 5.36457 12.3235 51.2189
636 1 9.59943 8.2729 51.7025
638 1 14.2149 7.80796 52.395
1116 1 27.4061 26.4904 77.6442
769 1 30.5832 23.6899 51.7537
712 1 27.7288 8.19303 54.8797
640 1 20.5563 8.10179 51.165
717 1 2.30625 9.85754 53.8568
719 1 7.0799 10.1391 53.8305
650 1 9.86719 12.231 51.8568
652 1 14.5644 12.5825 52.2043
723 1 18.1367 9.96981 53.902
725 1 23.5846 10.1486 52.8796
726 1 27.4213 12.169 54.6452
727 1 30.1746 10.3184 51.5425
731 1 2.88458 14.4767 54.4406
666 1 14.6381 17.0246 52.1222
737 1 18.5042 14.6295 54.091
739 1 24.1057 14.75 52.6377
741 1 30.2948 14.918 51.9833
745 1 2.88013 19.5923 53.9257
954 1 0.750485 20.8371 73.7851
747 1 6.90055 19.3452 54.2883
664 1 9.90784 17.1698 51.7578
751 1 17.8004 19.4168 53.4971
668 1 20.4015 17.6875 51.1368
753 1 24.3906 19.479 52.6981
740 1 27.6213 16.6101 54.5142
1063 1 33.7718 5.98441 75.374
781 1 24.8046 5.65138 57.3342
759 1 2.83116 24.0531 53.2395
705 1 7.04878 6.07484 54.691
678 1 10.089 21.687 52.2747
680 1 13.9367 21.0096 52.2562
765 1 17.8102 23.6833 53.8706
744 1 0.954107 21.5193 56.8228
767 1 24.2919 23.5267 52.8573
754 1 28.0791 21.25 54.0546
1118 1 31.2441 25.9924 78.8737
912 1 0.442484 8.34268 73.5491
779 1 18.9821 5.99496 58.0966
851 1 25.8723 5.99064 62.0408
694 1 14.5027 26.54 52.2528
755 1 30.4685 19.431 51.2511
758 1 0.240848 25.624 56.6799
704 1 4.64965 7.97121 57.4431
730 1 0.383258 17.2335 55.6556
706 1 9.05369 8.1339 58.6841
983 1 3.73145 6.08415 74.4925
708 1 15.8596 7.90253 56.7207
710 1 21.0961 8.23933 55.5937
692 1 10.2669 26.2202 51.9325
718 1 5.32552 12.1258 57.6856
721 1 12.2862 9.88512 55.2446
722 1 15.2097 12.4752 56.4878
724 1 21.8633 12.845 55.1043
795 1 24.9287 10.4845 57.1082
796 1 29.2536 12.6445 58.8169
797 1 31.3661 10.6514 56.0786
733 1 7.21637 14.7538 54.955
732 1 4.86628 17.2353 57.5145
735 1 11.8062 14.6153 55.3403
807 1 19.6475 15.072 58.6735
738 1 21.3809 16.8032 55.543
809 1 25.7638 14.5684 58.2464
811 1 31.3763 15.0152 56.3829
734 1 9.40781 17.2447 58.1957
749 1 12.5124 19.0346 55.1258
736 1 16.0184 16.4004 56.6587
823 1 25.2046 19.1635 57.2458
825 1 31.0923 19.2174 55.8824
845 1 7.54598 5.80903 64.9304
761 1 7.69391 23.9291 54.4772
746 1 5.41974 21.5162 58.0114
748 1 9.54322 21.6213 56.9965
763 1 12.4981 23.8968 54.6556
750 1 15.633 21.9026 56.768
752 1 21.6805 21.1781 55.1816
837 1 25.0315 23.8418 56.7479
839 1 31.5211 23.9541 55.8653
760 1 4.68437 25.7543 57.1925
762 1 9.98356 26.0438 57.9707
764 1 15.6354 26.4527 56.8293
766 1 22.1669 26.0237 55.1096
768 1 28.2501 26.0157 54.2182
940 1 0.917621 16.6957 74.7259
778 1 16.6126 8.46436 61.3537
780 1 22.3807 7.99896 59.8186
782 1 28.7163 8.46061 59.3207
787 1 2.09897 9.52542 59.9333
789 1 6.58437 10.213 60.7777
720 1 9.16022 12.4118 57.5758
791 1 13.0094 10.7159 59.5556
792 1 16.6398 12.6261 61.0608
793 1 19.4048 10.76 58.2466
794 1 22.5608 12.5379 60.3621
865 1 26.0584 10.2187 61.7727
867 1 32.7279 10.7216 60.4758
801 1 2.85983 14.3299 60.3442
803 1 6.88115 14.947 60.9581
805 1 12.748 14.8004 59.7047
806 1 16.4397 17.3201 61.2695
810 1 28.5405 17.1101 59.0341
879 1 26.1971 14.7442 62.0849
881 1 32.6667 15.1117 61.0932
815 1 2.28479 19.4291 60.6243
817 1 7.23866 19.3615 60.6047
819 1 12.7904 19.4656 59.5986
821 1 19.0257 19.5477 58.7168
808 1 22.821 17.3964 59.8081
895 1 32.7894 19.5776 60.2887
829 1 2.76522 23.3685 60.0769
831 1 7.11928 23.865 60.7755
833 1 13.4032 24.0036 59.4897
820 1 17.1579 22.0208 61.1458
835 1 19.6293 24.0805 57.7765
822 1 22.9405 21.9233 60.2255
824 1 28.7538 21.7798 58.8123
909 1 32.5622 23.9865 60.4967
1072 1 20.9877 12.1632 79.0203
834 1 17.2862 25.7739 61.2515
676 1 5.49493 22.2197 51.0446
836 1 23.5232 26.4827 60.126
838 1 29.0091 25.9251 58.4261
774 1 4.03197 7.45804 63.4174
776 1 10.2879 8.1869 62.808
1042 1 13.7602 26.2619 75.9322
850 1 23.3437 7.88129 64.7315
852 1 30.1184 7.88171 63.2114
788 1 3.99397 12.2632 64.5794
790 1 10.5181 12.58 61.8602
859 1 7.85126 10.3825 65.2367
861 1 14.0293 10.7739 64.3564
863 1 20.1703 10.6866 63.0855
864 1 24.2113 12.7827 64.6731
866 1 30.2367 12.9434 63.2844
937 1 33.6778 10.8093 64.6835
802 1 4.39332 17.0779 64.0337
804 1 10.9172 17.2684 62.1953
875 1 13.9879 14.6795 64.2982
877 1 21.6412 15.0506 63.0029
878 1 24.902 17.1798 65.3797
951 1 33.9584 15.3838 65.1563
889 1 14.4859 19.3964 63.9747
891 1 20.3239 19.3021 63.2495
893 1 26.3472 19.0228 61.762
880 1 30.2084 16.9633 63.4983
1033 1 33.5948 19.168 65.5161
816 1 4.64698 21.2543 63.8561
818 1 10.7042 21.8695 62.6524
903 1 14.358 23.3621 63.7273
905 1 20.4065 24.1074 62.5091
907 1 26.5961 24.0428 61.1285
894 1 29.9054 21.5204 63.5275
830 1 4.8997 25.9751 63.5873
832 1 10.5648 26.1691 62.6118
2111 1 24.7348 27.5071 52.7461
716 1 0.674482 12.2994 57.4727
906 1 23.8127 26.4897 64.1654
908 1 29.9178 26.2044 62.969
2323 1 33.7733 28.1748 65.1462
844 1 5.40967 8.8731 67.6811
846 1 11.7739 8.26326 66.6137
848 1 18.0276 8.05191 65.4631
756 1 33.6703 20.816 53.2631
922 1 30.9137 7.55918 67.8513
857 1 1.91333 9.78451 66.7788
858 1 5.18344 12.7431 68.264
860 1 11.6114 12.3926 67.4346
931 1 15.1795 10.1938 68.3542
862 1 18.0349 12.8704 65.5513
933 1 21.4618 10.2374 67.6413
935 1 27.4213 10.4472 66.3391
871 1 1.14973 14.3093 66.3251
873 1 8.09561 14.344 65.1346
872 1 5.99631 17.2363 68.2614
874 1 11.8002 16.8232 66.8181
945 1 15.6101 14.656 68.7219
947 1 21.4328 14.9016 67.6552
949 1 27.3282 14.486 66.6443
936 1 30.7386 11.7965 68.1652
885 1 2.1405 18.4933 66.7933
887 1 8.62282 19.0352 65.0842
959 1 15.7204 18.5045 68.2777
876 1 18.4436 16.8316 65.8532
961 1 21.6058 19.5226 67.2178
963 1 27.381 19.6332 66.3484
950 1 30.8806 17.2329 68.2097
899 1 2.27563 22.9985 66.3597
901 1 8.28786 23.749 65.6058
886 1 5.65338 21.3559 68.078
888 1 12.17 21.3511 67.037
890 1 18.2349 21.4767 65.6023
973 1 15.6846 23.1777 68.1195
975 1 21.3122 24.3471 67.0537
892 1 24.2418 22.2624 64.7568
977 1 27.329 23.9978 66.2311
964 1 33.9221 23.4517 65.0515
1035 1 30.9225 21.3104 67.6435
2455 1 10.5663 28.2108 78.561
900 1 5.16438 26.0779 68.1357
2245 1 8.00083 28.6757 65.6623
902 1 11.6469 25.8218 66.9282
904 1 17.6884 26.0411 65.7756
2315 1 8.5899 27.5791 69.6069
1091 1 34.0467 15.1139 76.1748
2243 1 2.11899 27.7205 66.2587
978 1 30.7857 26.0259 67.6651
916 1 12.0925 8.33384 71.2307
918 1 19.4545 7.83702 70.2996
920 1 24.929 7.61525 68.916
917 1 15.2352 6.05803 68.9645
992 1 32.3275 8.64735 72.3362
927 1 2.89321 10.6808 71.3919
929 1 8.98866 10.3177 69.5504
930 1 13.5919 12.8095 71.5219
932 1 18.6979 12.5572 70.3275
1003 1 22.14 9.92184 72.0639
934 1 25.1074 12.3926 69.3374
1005 1 28.5227 10.3977 70.8715
1006 1 31.7038 12.7624 72.7462
941 1 2.76413 14.986 70.8933
943 1 9.19384 14.9211 70.4004
944 1 13.0325 17.26 71.5249
946 1 19.0123 17.1309 70.29
1017 1 22.3362 14.6425 72.3162
948 1 25.0608 17.204 69.7194
1019 1 28.5134 15.1582 71.089
955 1 3.07679 18.9751 71.2156
957 1 9.21811 19.2113 69.9192
1031 1 22.6681 19.4032 71.8562
1020 1 28.3549 19.7859 70.9404
969 1 2.79756 23.9209 70.8442
971 1 9.11931 23.7244 69.6147
958 1 12.7656 21.5309 71.3439
960 1 18.8329 21.7451 70.2815
1045 1 22.3927 24.114 71.8123
962 1 25.4323 21.9407 69.0957
1047 1 28.5842 23.8405 70.6195
970 1 6.43124 26.2463 72.3492
1040 1 7.24784 25.8737 77.806
972 1 12.6415 26.2374 71.4517
770 1 33.9669 25.2902 52.9942
974 1 18.6622 26.2096 70.4578
2173 1 2.60375 27.7914 60.03
976 1 24.9508 26.4197 69.3619
914 1 6.8353 8.331 72.249
988 1 20.0837 7.69228 75.0395
990 1 26.0559 7.7284 73.5529
728 1 34.0214 12.378 53.6149
928 1 6.53568 12.9594 73.1863
997 1 4.33188 10.2815 75.7028
999 1 10.3486 10.5255 74.048
1000 1 14.1602 12.6458 75.5681
1001 1 16.3814 9.95788 72.922
1002 1 20.1131 12.3837 74.5523
1004 1 25.6334 12.0976 73.4372
1073 1 23.3409 9.85965 76.8503
1075 1 29.4277 10.7599 75.3234
1055 1 11.415 5.59292 78.2917
1011 1 3.84514 14.449 75.2928
942 1 6.69986 16.7635 72.7477
1013 1 10.4741 14.7963 74.4974
1014 1 13.8662 17.1213 75.6484
1015 1 16.9145 14.5608 73.4959
1016 1 20.232 16.9951 74.9139
1018 1 25.9139 16.9222 73.6105
1089 1 28.9195 14.8944 75.0485
742 1 34.2345 16.9494 53.1062
1025 1 4.56015 19.7259 75.5282
1027 1 9.87601 19.419 74.638
1029 1 16.6579 19.2291 72.7198
1103 1 29.41 19.5383 75.8628
1022 1 31.8266 16.5695 72.7741
956 1 6.07374 21.4829 72.6548
1041 1 10.0459 23.9965 74.2496
1043 1 16.3115 23.8976 73.2099
1030 1 20.0021 21.734 74.8181
1032 1 26.026 21.7732 73.8289
1117 1 30.5393 23.9905 75.3142
1034 1 31.8011 21.1901 72.2278
682 1 20.3543 21.7736 51.5506
2313 1 2.98567 28.1044 71.5346
714 1 33.5936 7.62997 53.097
1044 1 19.7301 26.1535 74.9063
1046 1 26.2749 26.0872 73.2037
1048 1 32.4286 25.8023 71.9809
982 1 1.44387 7.92775 77.836
984 1 8.05847 8.46204 76.5746
1038 1 1.15625 25.5666 78.2205
986 1 14.0603 7.8066 75.4382
2113 1 30.5614 28.261 51.0159
849 1 19.6957 6.02269 62.723
1060 1 26.5158 8.06833 78.1167
1062 1 31.259 7.97591 78.161
996 1 1.22445 12.5617 78.4025
998 1 8.06988 12.8742 77.1432
1069 1 11.5636 11.1585 78.3205
1071 1 16.9827 10.1199 77.4691
2249 1 20.7581 28.5418 63.1803
1074 1 26.8028 12.5831 78.2495
923 1 33.4044 6.05355 64.8096
1010 1 1.65491 17.2647 78.4086
1012 1 7.69332 16.3185 76.3919
1083 1 11.3872 14.9617 78.8091
1085 1 17.3357 14.7418 77.6864
1087 1 23.229 14.996 76.3948
1088 1 27.0629 17.359 77.9592
1097 1 10.8494 18.8319 78.3847
1099 1 17.3169 19.2335 77.8076
913 1 2.7028 5.91565 70.2708
1101 1 23.7113 19.4983 76.4795
1090 1 31.5866 16.808 78.5441
2175 1 7.3299 28.1699 60.1459
1024 1 1.2639 21.7045 78.3906
1039 1 3.91791 23.7607 75.2529
1026 1 7.5443 21.2544 77.2626
1111 1 10.9922 23.5201 78.7082
1028 1 13.7437 21.5781 75.8543
1113 1 17.9992 24.0919 77.6805
853 1 32.4346 5.9055 60.5808
1115 1 23.621 23.77 76.2305
1102 1 27.356 22.0534 78.4664
1104 1 32.4727 21.6714 78.5898
2457 1 17.5339 28.4489 77.3513
915 1 8.60077 6.31162 69.1182
2385 1 9.58544 28.131 74.1209
2109 1 18.3698 28.3301 54.514
2317 1 15.1463 27.8611 69.018
2383 1 3.94816 28.4255 75.8647
1076 1 31.5861 12.6279 78.0715
2387 1 16.5216 27.847 73.4992
2177 1 13.1853 28.1431 59.6206