ITEM: TIMESTEP
5000
ITEM: NUMBER OF ATOMS
16000
ITEM: BOX BOUNDS pp pp pp
1.0646531138168669e+00 1.0113534688618283e+02
7.2982032587353274e-01 1.0147017967412738e+02
5.6950487174351849e-01 1.0163049512825586e+02
ITEM: ATOMS id type x y z
2 1 3.90184 4.07673 2.59259
55 1 30.8635 15.9774 0.676829
4 1 8.75907 3.43335 2.1176
239 1 1.76728 11.1386 15.3928
6 1 14.2162 3.50473 2.24103
8 1 18.6767 3.02758 3.20539
10 1 24.7327 3.30516 3.45876
399 1 16.0104 15.7787 25.6
49 1 16.761 15.7667 0.563654
1613 1 6.57272 25.6626 15.8173
267 1 1.42536 20.3378 15.5187
12 1 29.4259 2.66044 2.74964
73 1 5.52136 1.03844 4.24944
16 1 4.3026 8.05833 2.79184
18 1 8.86639 8.13677 2.04774
20 1 14.598 7.82144 2.18826
22 1 18.6664 9.04519 3.16597
24 1 24.1408 8.17002 4.02642
26 1 27.9645 8.48577 3.29421
83 1 31.7571 0.934834 6.24568
30 1 3.99831 12.1679 2.46781
32 1 8.88787 12.788 2.87132
34 1 13.8195 13.3897 2.75391
36 1 19.1528 13.1146 2.46135
38 1 23.6689 13.7676 3.80327
40 1 29.0349 12.7585 3.61299
42 1 33.5023 13.6624 2.42042
169 1 1.29599 10.1394 10.8217
395 1 6.93593 15.1963 25.5042
52 1 23.8416 18.7656 3.27449
54 1 28.3497 19.0546 2.57766
350 1 33.1723 22.6569 24.0795
44 1 3.19912 18.2286 1.86551
46 1 9.18933 18.7882 2.98739
48 1 14.1688 18.914 2.43118
50 1 18.3946 18.7322 2.45886
58 1 4.04526 22.6548 2.61842
60 1 8.59099 23.1703 3.76565
62 1 13.3061 23.2593 2.5813
64 1 18.2077 23.5076 2.64523
66 1 24.6028 23.4105 2.36289
68 1 28.9448 23.7945 2.27532
281 1 1.70422 0.997456 19.904
71 1 1.93387 1.56851 5.46187
1621 1 26.3146 25.6347 15.8384
74 1 9.16323 2.54533 6.65478
127 1 1.58384 21.4907 6.1021
76 1 15.3256 2.51528 7.27197
78 1 19.3224 3.05672 8.02715
80 1 23.7827 3.39796 8.15428
81 1 26.265 1.0981 6.19408
391 1 30.2706 10.8208 25.4973
85 1 1.7282 5.4188 6.6249
87 1 6.66786 5.60601 5.70733
89 1 12.0327 6.18755 5.15846
91 1 16.4922 6.19901 5.66503
93 1 21.0174 6.02225 5.62754
95 1 27.1062 5.11827 6.18381
97 1 31.3118 6.02663 4.99349
99 1 2.20972 10.0305 6.19522
101 1 6.59009 10.1362 5.73816
103 1 11.4695 10.2467 5.42046
105 1 16.4824 11.4509 5.72671
92 1 19.2423 8.86581 7.74489
107 1 21.4816 11.2585 5.78744
109 1 26.4403 11.0731 5.61188
111 1 31.8203 10.5232 5.08831
100 1 4.59915 12.9947 6.84242
102 1 9.00152 13.9127 6.56658
104 1 14.1388 14.0914 7.27626
113 1 1.80849 15.2306 5.11533
115 1 6.46742 16.2336 4.58253
117 1 11.547 16.3047 4.05747
118 1 14.0164 18.9605 7.78523
119 1 16.8027 15.9799 5.2663
121 1 20.722 16.8546 4.97015
123 1 26.6457 16.2456 5.17982
124 1 29.7088 19.0584 7.00554
125 1 31.3983 16.4938 4.67069
153 1 31.7152 1.08095 10.5619
129 1 6.03345 19.9914 5.42676
131 1 11.4955 20.8879 5.50044
133 1 16.0808 21.4232 5.27345
120 1 18.6071 19.1111 8.10938
135 1 21.5508 21.4188 5.0851
137 1 26.0501 21.105 5.22532
139 1 32.0143 21.2396 4.59659
128 1 3.51435 23.8403 8.50147
1473 1 6.22136 25.9742 5.17041
130 1 8.01482 22.7757 8.45208
132 1 14.2711 23.602 8.42824
134 1 18.5342 23.5135 7.30602
1479 1 21.9164 25.4128 4.71272
136 1 23.8636 23.2652 7.42067
379 1 1.08118 10.8686 25.642
138 1 29.2423 23.3903 7.64257
336 1 32.8834 18.0563 23.0263
72 1 4.86352 2.98398 8.39786
334 1 28.3768 17.5992 23.2823
253 1 1.43044 15.8162 15.2404
37 1 22.3806 10.2741 0.708693
344 1 19.1432 22.6239 23.2425
342 1 14.3925 23.645 22.7986
340 1 8.85277 23.0325 23.6577
82 1 28.9594 3.11124 9.04252
84 1 33.6067 3.71819 8.86035
285 1 12.0048 1.51929 20.2943
155 1 1.86177 5.42218 10.4499
157 1 7.42888 5.29289 10.4624
159 1 11.6089 4.13731 9.36196
161 1 16.7177 5.89157 10.2704
94 1 23.9406 8.01987 8.2669
163 1 21.1687 5.61404 10.3943
165 1 26.721 6.23114 10.7528
86 1 4.76445 7.53705 9.37981
88 1 9.38492 8.5363 8.2853
90 1 14.5093 8.45988 8.23185
177 1 22.1646 11.8491 10.1914
179 1 26.7873 11.0044 10.3161
96 1 29.4725 8.68152 7.88732
98 1 34.1896 8.06399 8.19827
181 1 31.4641 11.1116 10.8499
171 1 6.50944 11.6192 10.0034
173 1 11.2357 11.4287 9.85666
106 1 18.9402 13.6214 7.54326
175 1 16.1074 11.7849 9.66305
108 1 24.7127 14.6279 8.1624
110 1 29.1112 13.3014 7.37257
112 1 34.1957 12.4929 8.72487
1689 1 22.1802 25.4701 21.2087
114 1 3.07614 17.5304 8.12146
185 1 6.45924 15.5426 10.2661
187 1 11.1156 16.0187 10.266
189 1 15.9285 16.4109 10.3526
191 1 21.8017 15.9024 10.3979
193 1 26.8023 16.7362 10.0377
122 1 23.3466 18.5392 7.59379
199 1 5.78555 20.0995 9.97304
116 1 9.28848 18.294 7.71016
201 1 11.9124 21.3305 10.691
203 1 16.2524 20.8592 11.2868
205 1 20.9631 21.1104 10.52
207 1 26.6919 20.5232 9.74424
126 1 33.4698 18.7262 8.33512
209 1 31.5371 21.1112 10.4883
326 1 9.1922 19.2545 23.3255
140 1 34.0648 23.615 7.95913
142 1 4.2225 2.89669 12.9472
144 1 9.62425 2.47356 13.5011
338 1 4.18218 23.2489 24.0357
146 1 14.331 2.3975 12.8168
148 1 18.7505 3.45644 12.6101
150 1 23.4766 3.96037 12.9211
152 1 28.7079 3.15949 13.754
231 1 15.848 6.59941 14.2448
233 1 21.0824 6.4535 14.8776
167 1 30.8808 6.65224 11.388
154 1 32.9219 3.62348 13.8264
156 1 4.80132 8.31451 12.9743
158 1 8.98086 8.81555 13.1538
160 1 13.4021 8.76843 11.9675
162 1 19.4612 8.71148 12.388
164 1 23.8607 8.31738 12.8953
166 1 28.2086 9.55761 13.6724
168 1 33.1555 8.16218 14.3375
170 1 4.29814 13.0613 13.4252
172 1 8.53504 13.5429 12.8599
174 1 13.7279 13.3853 12.9832
176 1 18.3289 13.382 12.3224
178 1 24.5863 13.3784 12.7559
180 1 28.6752 14.0379 13.3172
182 1 33.3625 14.1434 13.8297
184 1 3.95321 17.5613 12.6322
190 1 18.5758 18.1158 12.8716
194 1 29.198 18.7802 12.5818
195 1 31.4809 15.7445 10.6572
186 1 8.55057 18.3576 12.4631
188 1 13.7885 17.6476 13.3672
275 1 21.6992 20.673 15.194
192 1 24.0419 18.7282 11.9939
277 1 26.143 20.9334 15.4217
196 1 33.7434 18.759 13.5119
198 1 4.30652 22.5151 13.7273
200 1 9.03786 23.1382 12.8632
202 1 14.6585 24.2018 13.3541
204 1 18.9369 24.1511 13.2675
206 1 23.9424 23.4737 12.1976
208 1 28.531 23.4985 12.3576
210 1 33.3409 23.7291 12.9935
214 1 10.0142 4.10711 17.7947
216 1 14.5679 3.38152 17.3899
218 1 19.4096 3.23976 17.9706
220 1 23.2483 3.00747 17.4623
222 1 28.3326 2.7785 18.4693
224 1 32.9708 2.22197 17.9522
212 1 3.84771 1.97152 16.7765
225 1 2.63039 5.75111 14.8297
227 1 7.17861 5.00278 14.9273
229 1 11.7683 5.77068 14.9957
232 1 18.7123 7.67586 18.3126
234 1 23.22 8.23364 18.6389
235 1 26.5629 6.45537 15.9207
237 1 30.4326 5.97189 16.6316
226 1 4.33628 8.41338 18.311
241 1 6.95809 11.4462 15.703
228 1 8.31338 8.47381 17.9529
243 1 12.1544 10.2556 15.9435
230 1 14.1901 7.95733 18.0621
245 1 16.779 11.0947 15.5118
247 1 21.4682 11.2841 15.526
249 1 25.0715 10.6116 16.156
236 1 28.6513 8.76937 18.9375
251 1 31.1282 11.0011 16.0916
240 1 3.87288 14.2188 17.9829
242 1 9.70337 12.8772 17.8516
244 1 13.7191 12.9993 18.4406
246 1 19.4345 14.0053 18.186
248 1 23.7894 14.1013 17.2742
250 1 28.1858 13.8012 17.855
348 1 29.0729 23.4064 24.1526
254 1 3.50079 18.459 18.2777
255 1 6.81079 16.1986 16.0959
257 1 11.1162 16.2971 15.7177
259 1 15.7523 15.5601 15.8681
261 1 21.5297 15.9821 14.8964
263 1 26.539 17.1501 14.8098
265 1 31.1196 16.8481 15.8782
266 1 33.2663 18.8941 18.2346
269 1 7.31834 21.0097 16.2846
271 1 11.5898 21.3432 14.9101
258 1 13.3084 19.0924 17.7963
260 1 19.6497 18.0369 17.2791
273 1 17.217 20.658 15.5458
262 1 24.1502 18.4572 18.7533
264 1 28.6454 18.978 17.8971
279 1 30.8349 21.514 15.5791
268 1 3.33466 23.0978 17.6929
270 1 9.2929 23.3676 18.8562
272 1 14.9496 23.5106 17.3664
274 1 18.9391 23.4886 17.789
276 1 23.9861 22.8886 18.0189
332 1 23.7808 18.1931 23.3911
330 1 18.7369 18.2556 23.2886
1615 1 10.8836 25.7151 15.9748
320 1 28.1921 13.5733 23.7907
322 1 32.9464 13.7817 23.6684
28 1 34.1325 7.98256 1.8042
307 1 30.5759 5.42074 21.4419
295 1 2.04721 5.48067 19.1918
297 1 6.92425 5.44163 20.8685
299 1 11.661 5.32032 21.7411
301 1 16.0311 4.86008 20.8653
303 1 22.2592 5.03518 21.4026
305 1 25.9398 5.17653 20.5278
238 1 33.2225 8.43586 19.231
309 1 1.67104 11.464 20.8386
311 1 6.29812 10.9732 20.2438
313 1 12.1707 10.0952 20.474
315 1 16.398 10.911 19.8199
321 1 31.0613 11.4221 20.8404
317 1 21.0087 11.138 20.1531
319 1 25.2657 11.3418 20.8044
252 1 32.9351 13.4603 18.2979
323 1 2.52039 16.0554 21.359
325 1 6.51139 16.1023 20.7859
327 1 11.0999 16.0583 20.7002
329 1 16.0741 16.6131 20.1914
331 1 21.763 15.7898 20.8311
333 1 26.4246 15.8642 20.6779
335 1 30.8489 15.7444 20.5826
337 1 1.04017 20.8271 21.7499
339 1 5.99484 20.8607 20.8412
256 1 9.36965 19.142 18.9215
341 1 11.9973 21.3628 20.6374
343 1 16.7285 21.3448 20.3501
345 1 21.3337 20.8219 20.4672
347 1 25.9269 21.223 21.6472
349 1 30.1071 21.0606 20.929
1681 1 1.2412 25.5329 20.9159
1475 1 10.8625 24.9556 6.29704
328 1 13.7233 18.107 23.6842
278 1 28.1795 23.5681 18.2443
280 1 33.8805 23.3321 18.6984
282 1 3.97015 3.05476 23.1759
1755 1 11.7006 25.4714 25.3008
284 1 8.46437 3.20719 23.7012
286 1 14.5683 2.90631 23.9339
288 1 19.0255 2.70265 23.7636
290 1 23.7224 1.46745 24.2248
292 1 27.853 3.42801 23.4971
294 1 32.5179 3.49741 24.3398
367 1 6.60284 5.96456 25.4267
369 1 11.4102 6.11342 25.6822
300 1 14.3963 8.14765 22.6916
318 1 23.3303 13.4669 23.4768
324 1 4.49772 18.44 24.4161
197 1 1.23297 20.8975 10.7349
306 1 28.0197 8.40347 23.4386
308 1 33.1346 7.96443 23.0994
346 1 23.5903 22.9767 24.093
296 1 3.74676 8.77446 22.0931
397 1 10.9469 16.4292 25.4215
298 1 8.8105 8.11705 22.9331
383 1 11.3974 10.4988 25.1565
302 1 18.9614 7.93072 22.7095
385 1 16.1599 11.0186 25.3176
387 1 20.8164 10.4151 25.5839
304 1 23.6218 8.33604 23.0664
393 1 1.13186 15.6771 25.9985
1543 1 5.88216 25.5624 10.8067
310 1 4.50076 13.2019 23.1298
312 1 9.23091 13.0693 22.6034
314 1 14.0018 13.6151 22.9552
316 1 18.7963 13.8256 22.7336
70 1 33.5652 24.4238 2.1831
1693 1 31.0545 25.8243 21.6395
183 1 1.26042 14.7003 10.65
1405 1 10.2618 25.8905 1.51529
1685 1 12.0308 25.7585 20.3886
1623 1 30.8996 25.5202 15.6463
33 1 11.616 10.8493 0.642737
1687 1 16.7055 25.792 20.1278
217 1 16.7697 0.869706 15.7517
417 1 26.2244 19.7669 25.9252
365 1 1.78899 6.71609 24.9909
351 1 1.9137 0.762608 25.6851
45 1 6.07691 15.8057 0.620118
23 1 22.4124 6.32128 0.763665
53 1 26.4737 15.1857 0.848131
352 1 3.89132 4.04999 27.7178
354 1 9.73696 3.80776 28.1396
356 1 13.9718 2.72854 28.0396
358 1 18.2013 2.84169 27.9585
360 1 23.7153 2.06279 28.3328
362 1 28.276 2.20763 28.7855
364 1 32.687 2.48361 28.8708
1967 1 16.6407 25.5141 41.2375
433 1 30.0407 0.920511 32.212
378 1 32.3031 8.86283 29.2284
366 1 4.34137 8.58259 28.3583
368 1 9.75727 8.35744 28.1631
370 1 14.5057 9.06693 28.2781
372 1 19.0139 8.93976 28.3911
374 1 23.1255 8.07284 28.759
376 1 27.5885 8.48009 29.335
380 1 3.44403 13.2111 27.6199
382 1 9.11993 13.3409 28.1514
384 1 13.7193 13.2195 27.5167
386 1 17.9192 12.781 28.1167
388 1 22.6583 12.8895 29.3281
390 1 28.2193 13.0273 29.4548
392 1 32.9169 13.1766 29.3168
394 1 4.36599 17.7761 28.4716
396 1 9.03791 18.1038 28.4474
398 1 13.5776 18.5547 28.3908
532 1 33.5906 12.9902 38.6383
401 1 20.877 16.0946 26.2457
402 1 22.7791 18.6872 29.3225
403 1 25.4049 15.6828 26.9054
405 1 30.5091 15.4581 26.9099
404 1 28.3048 18.45 29.583
700 1 34.2036 22.5086 48.0797
413 1 15.8536 20.3575 25.8602
411 1 11.6328 21.1182 26.84
491 1 1.43547 0.999759 35.8108
415 1 20.5517 20.114 26.2962
423 1 6.58276 1.58951 30.5455
419 1 31.1221 20.9291 26.925
408 1 3.68711 23.6561 28.7243
381 1 6.92422 10.5604 26.0391
410 1 9.07413 24.1592 29.0127
565 1 10.6025 0.753874 41.5108
412 1 13.5885 23.2048 28.9908
414 1 18.2995 23.6018 28.5315
1757 1 16.0807 25.1032 26.0137
416 1 23.6881 22.4195 28.6585
1763 1 31.3351 25.5443 26.2509
418 1 28.3917 23.3138 28.7085
420 1 33.1258 23.6996 29.3796
422 1 4.3913 4.31432 33.6681
424 1 9.17371 3.37826 32.7962
426 1 14.0271 2.55771 32.5005
428 1 17.9142 2.6737 33.2695
686 1 34.0312 18.5885 48.0283
434 1 33.3587 2.71999 33.6509
435 1 1.60815 5.7665 31.1057
437 1 6.61852 5.73478 29.9293
439 1 11.7697 5.92796 30.4427
441 1 16.2854 5.6722 29.6647
440 1 14.3564 7.64037 32.7334
442 1 18.1564 8.20328 33.2833
443 1 20.7047 5.05485 30.4316
445 1 25.9677 4.99038 31.0719
444 1 22.7967 7.37398 33.4176
447 1 30.3322 5.29962 31.4958
449 1 1.61645 10.1991 30.796
436 1 4.40763 8.1719 33.3659
451 1 6.53195 10.7526 30.6124
453 1 11.7369 11.0197 31.2546
438 1 8.99844 8.54324 32.8686
455 1 15.647 11.1198 31.1121
457 1 21.1376 10.6554 32.0592
459 1 25.7067 10.3974 31.7992
461 1 30.5117 10.4065 32.4454
471 1 20.477 15.6641 30.8212
473 1 25.0843 15.0389 31.3156
475 1 29.2993 15.2974 32.8369
463 1 1.57702 14.664 30.8144
465 1 6.2273 14.4798 30.4114
467 1 10.8053 14.9836 31.1191
400 1 18.1376 18.9303 28.9148
469 1 16.1167 15.7118 30.702
406 1 32.9785 17.2831 29.3748
477 1 2.14844 20.8822 31.0621
479 1 6.64659 20.8615 31.4447
481 1 11.2945 21.0404 31.3689
483 1 15.8473 21.0835 31.631
485 1 20.3064 21.537 31.8349
487 1 26.0361 20.8651 31.5986
489 1 31.3701 20.8755 31.4599
377 1 30.2192 6.27687 25.9793
1831 1 26.0829 25.5495 31.0253
1833 1 30.6649 25.6051 31.4414
490 1 34.2134 23.8234 33.7826
409 1 7.11558 21.2482 26.8079
2041 1 26.9097 24.9035 47.3078
575 1 0.932359 5.7564 40.669
430 1 22.6432 2.93056 33.3982
432 1 27.7923 3.20345 34.4251
505 1 1.5969 5.43463 35.7275
507 1 7.28956 5.8477 35.9123
509 1 11.5461 5.58451 35.848
511 1 15.8344 4.70658 36.0538
513 1 19.9629 5.1813 36.5399
515 1 24.3335 5.68744 36.583
446 1 27.433 7.44756 33.9131
448 1 32.4098 6.88385 34.8091
519 1 1.91445 10.2553 35.8367
521 1 7.24571 9.99278 36.5754
523 1 11.986 10.1255 35.7129
525 1 16.1663 9.38697 36.4828
527 1 20.727 9.77879 36.6423
529 1 25.0009 9.46279 37.2222
531 1 30.5732 10.7467 36.2791
450 1 4.27152 12.7762 34.1114
452 1 8.47151 13.0244 34.3279
454 1 13.6856 13.9315 34.4046
456 1 18.2363 12.8459 33.9449
458 1 22.9027 13.3524 33.9945
543 1 25.2925 16.0872 36.8632
460 1 26.7697 12.1086 34.8601
462 1 33.3801 13.1647 34.0055
533 1 1.31188 14.9899 35.7366
464 1 4.18859 17.3584 33.3964
466 1 8.46377 17.6366 33.2748
468 1 13.7228 17.4714 32.9894
470 1 18.4 17.6422 33.4109
539 1 15.901 15.9165 36.8105
472 1 22.8898 17.7917 33.148
545 1 30.0498 15.0192 36.7069
474 1 28.4642 18.7827 34.3637
476 1 32.9241 17.6762 34.2523
547 1 1.86077 20.8924 35.6408
549 1 6.07755 20.092 36.044
551 1 10.6773 20.0586 36.0119
555 1 20.9387 20.3382 36.272
559 1 31.5394 20.9272 36.0997
478 1 3.85125 23.6661 33.9012
480 1 8.49483 23.7533 34.1821
482 1 13.2381 24.1266 33.6723
484 1 18.1771 23.9171 34.5282
486 1 23.0323 23.344 34.2692
488 1 27.8453 23.5676 34.5809
690 1 7.38101 22.7086 48.301
561 1 1.83349 1.16253 40.5762
492 1 4.6201 3.87273 38.2235
494 1 9.29725 3.1734 38.7642
496 1 13.846 2.50045 38.5615
498 1 17.6437 2.64205 39.4461
500 1 22.6748 2.61041 39.6225
502 1 27.2 2.94574 39.054
504 1 32.9887 2.66381 39.8125
508 1 9.77304 8.10584 39.1323
512 1 18.0984 7.92636 40.0698
514 1 22.2636 7.34381 40.3516
516 1 28.7106 8.45897 39.8241
517 1 30.0031 4.89136 37.1367
518 1 32.4328 7.46567 39.2225
506 1 4.95069 7.99496 39.1658
510 1 13.385 8.07927 39.3382
520 1 4.73989 12.691 38.0908
522 1 9.08937 13.6007 38.9149
524 1 14.0148 12.7097 38.9444
526 1 18.6336 12.312 38.5623
528 1 23.1546 12.5429 37.9693
530 1 27.5929 12.8876 39.4287
615 1 30.5961 15.7796 41.2406
639 1 20.5666 0.91854 47.4989
534 1 3.37878 18.2003 39.056
535 1 6.49529 15.5573 36.6041
537 1 11.1054 16.0974 36.8268
540 1 18.2961 18.9096 38.519
541 1 20.7755 15.6649 37.0195
546 1 32.9986 17.7958 38.8863
2103 1 5.15489 25.0601 50.5347
536 1 9.03439 18.3309 39.2835
538 1 13.678 18.9334 39.3912
553 1 14.5222 21.2978 35.9677
542 1 22.1973 18.4547 39.5444
557 1 24.9707 20.42 36.2768
544 1 28.3921 17.415 38.7653
548 1 3.69011 23.7286 38.5038
431 1 25.5678 1.1459 31.8151
550 1 8.3113 23.5216 38.3127
552 1 12.7664 24.3004 38.9497
694 1 18.5298 23.1756 49.8127
554 1 18.3257 22.9079 38.1508
556 1 22.7447 23.0429 38.0563
558 1 28.8773 22.6388 38.2595
560 1 33.5788 23.8719 38.3194
563 1 6.16916 1.28562 41.5862
407 1 1.4711 20.2803 26.371
501 1 24.2644 0.989171 36.2005
574 1 33.9094 3.20683 44.2791
577 1 6.89608 5.81939 41.9769
579 1 11.392 4.68641 41.8896
581 1 16.0104 5.10003 42.0053
583 1 20.0946 4.85903 42.5271
584 1 22.2183 7.18446 44.3192
585 1 25.719 4.70599 42.4363
587 1 30.1822 4.83972 42.3065
588 1 32.9568 7.38263 43.7977
576 1 3.30769 8.60247 43.5549
593 1 11.5202 10.4972 42.2394
595 1 16.2407 10.9885 41.6721
580 1 13.4723 7.33578 44.9067
597 1 20.9849 11.0677 41.9784
599 1 24.9324 9.95606 41.6667
586 1 28.5133 8.66252 44.3688
601 1 31.3126 10.9149 41.4705
603 1 1.37255 15.0242 40.4515
590 1 4.00407 13.0055 43.7932
591 1 7.07644 10.3848 41.4499
596 1 17.8424 12.9071 44.4884
598 1 23.329 13.3209 44.0318
600 1 27.8429 13.018 43.778
727 1 31.3107 5.28685 50.7569
604 1 3.32323 17.875 43.5957
605 1 5.71827 15.9073 41.3216
606 1 8.1227 18.0469 44.0698
607 1 11.2634 15.8544 41.4817
609 1 15.4599 15.3271 41.8581
611 1 20.1488 15.5318 41.3657
613 1 26.0162 15.851 41.4924
698 1 29.3194 21.1589 48.6908
619 1 5.94972 20.6074 40.7576
621 1 10.4159 21.4307 41.5522
608 1 13.6214 19.2359 43.7628
623 1 16.015 21.7799 41.4162
625 1 20.5893 21.361 41.8381
627 1 25.5786 20.5954 40.9528
629 1 31.1019 20.7531 40.7994
618 1 3.22028 22.7991 43.2093
1971 1 25.3691 25.1056 41.4737
680 1 18.6279 18.5656 49.6488
373 1 21.8208 5.23762 25.9069
630 1 32.9499 22.5467 43.6734
562 1 3.64934 3.44806 44.4827
564 1 8.32804 3.04373 44.9345
566 1 12.7265 2.15407 45.4853
568 1 17.6532 2.43041 45.129
570 1 23.0275 2.87968 44.6982
572 1 27.5937 2.22943 45.0861
692 1 13.7638 23.3008 49.239
645 1 1.35167 6.9629 46.4794
647 1 6.53417 6.4887 46.5993
649 1 10.9922 5.23577 47.1823
651 1 15.5954 5.69383 48.0784
653 1 19.8562 5.36233 47.4876
655 1 26.0948 5.34542 46.2689
657 1 30.2678 4.88224 46.7652
616 1 33.9727 17.9865 43.4024
661 1 6.73194 11.276 47.0723
578 1 8.93847 8.50145 44.6125
663 1 10.8691 10.7886 47.5074
665 1 15.4335 10.2523 47.6005
582 1 18.5482 8.09103 44.5605
667 1 21.4134 10.8827 46.6977
669 1 25.3469 9.97904 46.4224
671 1 31.8597 10.8313 46.0843
592 1 9.09875 13.9779 45.1881
594 1 13.8623 12.9001 44.2063
673 1 0.935018 15.6029 46.152
675 1 5.73569 15.5713 46.5694
677 1 12.1729 16.902 46.4683
610 1 18.1799 18.6607 43.3839
681 1 20.3982 15.6875 46.0628
612 1 23.3625 17.9761 43.456
683 1 24.8121 15.4696 47.2171
614 1 28.0476 18.3429 43.2251
685 1 31.4857 15.0528 45.815
1969 1 21.28 25.1093 41.0006
689 1 5.39026 19.7134 46.2653
691 1 11.0295 20.6132 46.2697
693 1 16.0992 19.9346 46.6571
695 1 20.7831 20.2305 46.6824
697 1 25.3646 19.5157 46.8971
699 1 31.145 19.663 45.7055
688 1 2.34303 24.0759 48.1959
620 1 7.73963 22.8421 44.1153
622 1 13.6071 24.0072 44.5625
624 1 17.4243 23.037 44.9321
626 1 23.7869 23.0145 44.6235
628 1 28.451 22.2218 44.3513
632 1 3.40854 4.27162 49.0966
634 1 7.81446 3.05999 49.4856
636 1 12.7843 2.64845 50.5635
638 1 17.9581 3.03256 49.9023
640 1 23.4732 3.84525 50.0659
642 1 27.9556 2.42446 49.0326
648 1 8.57829 7.91482 50.0464
658 1 34.0902 8.34972 48.404
646 1 4.05905 9.1265 49.4657
650 1 12.9498 8.02121 50.0949
652 1 19.0978 8.52303 49.4848
654 1 22.8105 8.21935 48.9949
2043 1 30.6214 25.5675 45.5566
656 1 29.4237 8.79531 48.4154
660 1 3.79408 13.8296 49.4385
617 1 1.32531 20.8119 40.7382
662 1 9.25445 14.1089 49.1928
664 1 13.504 13.335 49.2114
666 1 19.056 13.9837 49.4745
668 1 23.4305 12.4044 49.2801
670 1 28.6265 13.3927 48.4667
741 1 31.2636 11.5374 50.5599
2039 1 20.1598 25.3234 46.7145
674 1 3.16149 17.8468 49.6497
495 1 11.8655 0.912002 35.5333
678 1 13.9989 17.7211 50.0097
679 1 16.1235 16.1153 46.2199
682 1 22.2847 17.1473 49.8919
684 1 29.1428 17.2625 48.0469
696 1 23.939 23.0345 48.6227
589 1 1.4668 10.4116 40.6228
676 1 8.61753 18.5659 48.5628
2113 1 30.649 24.7383 50.0607
1973 1 29.9587 25.6104 41.5797
2035 1 10.7337 25.764 46.6225
493 1 6.08566 1.08435 35.2518
421 1 1.93795 1.27684 31.2521
755 1 31.6795 16.1046 51.1696
725 1 26.2861 6.68601 49.8104
767 1 26.2096 19.7822 50.6858
739 1 26.6779 10.775 50.6667
2105 1 9.79077 24.5795 50.5093
375 1 26.0692 5.47528 26.1544
389 1 25.5085 11.1856 26.0532
602 1 34.178 13.466 43.1564
1827 1 15.9817 25.7935 30.7094
1965 1 10.4169 25.7305 41.9032
371 1 17.2363 6.43601 25.9497
702 1 2.96618 3.169 54.5334
1022 1 34.273 13.5252 72.9221
1057 1 15.1942 1.25028 76.0864
785 1 1.10285 6.52421 55.9896
710 1 24.63 4.07391 53.5782
712 1 29.7217 2.35772 53.3677
1109 1 6.14961 21.472 75.5814
717 1 5.84665 5.40356 51.881
719 1 10.3507 5.28606 52.7051
720 1 13.4874 8.19966 54.7301
721 1 15.7139 4.97252 52.3088
723 1 20.5521 6.11598 52.573
995 1 1.07211 6.16979 71.4516
726 1 29.4659 8.14129 52.7774
728 1 33.8493 7.47556 54.0505
952 1 33.4894 14.491 68.2346
716 1 4.40796 9.57739 53.5778
718 1 8.88121 9.14435 54.5236
733 1 11.3422 11.1271 52.3333
913 1 5.42154 0.732019 67.0286
722 1 18.1769 8.62525 55.0254
737 1 20.9583 10.9052 51.96
724 1 24.2356 7.99638 53.4119
730 1 3.48152 13.6977 54.632
732 1 9.05589 13.8132 55.0742
734 1 13.6107 13.9912 54.6926
736 1 18.2789 12.5292 54.7627
738 1 24.7308 12.2417 53.8089
740 1 29.3357 12.8035 53.6282
742 1 34.0099 13.2384 53.709
747 1 10.5354 17.1021 52.4625
748 1 14.393 18.7718 54.5931
749 1 16.365 15.4233 52.2655
750 1 19.1471 18.7337 54.227
751 1 20.949 14.7426 52.7381
752 1 23.777 17.9168 54.2736
2181 1 26.813 25.7148 55.7385
754 1 29.4635 18.5332 53.9674
756 1 34.0639 17.9166 54.4481
744 1 2.73836 18.3082 53.9712
746 1 8.19378 19.3033 54.8596
761 1 11.348 20.8804 51.789
763 1 16.1065 21.0107 51.649
765 1 21.7139 20.8248 51.2433
769 1 31.8944 20.9068 51.6653
758 1 2.88551 23.57 54.1117
760 1 8.72301 23.2061 55.0136
799 1 1.15382 10.6537 55.6256
731 1 6.88508 12.0077 51.6856
764 1 19.3308 23.1383 54.4122
766 1 23.8874 22.9708 53.2734
768 1 28.4309 22.6928 53.6956
1048 1 29.8455 23.3294 73.0304
917 1 16.1703 1.03782 66.2028
704 1 7.49343 2.9378 54.2208
1091 1 31.764 11.2906 75.3314
1093 1 1.13576 15.5533 76.1978
706 1 13.0122 2.49572 54.89
708 1 18.4033 3.3489 54.4208
779 1 21.7491 1.13612 57.0283
1061 1 26.8477 0.955136 75.3863
2109 1 21.5776 25.8691 51.7957
787 1 5.75823 5.8945 55.954
789 1 10.2882 5.47071 57.1709
791 1 15.5049 5.97187 56.8075
793 1 21.6664 5.79997 57.0177
795 1 27.4621 5.8306 55.5035
797 1 31.7808 4.44639 56.5999
803 1 11.3275 11.6279 57.2111
805 1 15.5308 10.3919 57.0886
807 1 22.3119 10.3208 56.5793
809 1 27.5138 10.295 56.5293
811 1 31.4885 9.72123 56.5031
2461 1 26.7552 25.4761 75.9089
801 1 5.6329 11.3518 56.882
825 1 31.1065 15.6937 55.6364
815 1 5.32094 16.2092 56.7109
817 1 11.2703 16.3167 56.968
819 1 16.8915 15.9083 56.2911
821 1 21.4124 14.821 57.2458
823 1 27.4094 15.0029 56.0366
826 1 34.0198 17.9676 58.5028
829 1 5.22498 20.979 56.8392
831 1 11.2006 20.8109 56.6802
833 1 15.8961 21.9377 56.2404
835 1 21.9146 21.1811 57.2281
837 1 26.3391 20.8821 56.6622
839 1 32.3373 21.7874 56.3032
2173 1 5.64525 25.6156 56.611
762 1 13.3174 23.8279 54.0632
1087 1 21.9529 10.3943 75.9801
1081 1 6.74126 11.0526 75.8976
838 1 28.6217 23.3306 58.2075
2313 1 5.49469 24.8727 65.5954
774 1 7.73824 3.43297 59.5004
709 1 21.091 1.34038 52.1674
845 1 11.2566 1.25925 61.7496
776 1 13.5343 3.01756 59.3872
778 1 18.6458 3.00712 58.9711
849 1 21.951 1.19729 61.5205
780 1 24.7345 3.53253 58.2711
851 1 26.0934 1.59276 61.8401
782 1 28.6021 3.45928 59.2233
753 1 27.0152 15.3778 51.557
772 1 3.22044 3.71732 59.1628
861 1 16.5634 6.0666 61.8246
863 1 21.5304 5.89561 61.328
867 1 31.9532 5.59458 61.3719
786 1 2.629 8.38581 59.7165
788 1 8.01662 7.96929 59.3652
790 1 12.6963 7.97473 58.8463
875 1 15.7459 10.2919 61.4149
792 1 19.1092 7.77485 58.9938
877 1 22.1213 10.5862 61.393
794 1 24.7642 8.01238 58.7842
879 1 26.9095 10.1882 61.148
796 1 29.4642 7.85327 59.224
798 1 34.0503 7.27712 58.7906
800 1 2.19958 12.4793 58.6867
802 1 8.22342 13.3695 58.9099
804 1 13.6915 13.7158 59.3746
806 1 18.6297 12.3439 59.0946
808 1 24.5772 13.463 58.643
810 1 29.3282 13.685 59.4088
814 1 2.14018 17.2993 59.7172
818 1 14.035 18.9753 58.5177
891 1 21.1876 15.9809 60.9146
822 1 24.4326 17.2537 58.7852
824 1 29.0625 18.3226 58.6645
895 1 31.4923 15.9083 61.8261
816 1 7.78749 18.194 59.4072
903 1 16.3636 21.922 61.2934
820 1 18.5788 19.2049 58.8636
905 1 22.2261 20.479 61.2996
907 1 26.2625 20.9183 61.2842
909 1 32.0355 21.4464 60.3295
828 1 2.31278 23.6586 59.1927
830 1 8.80703 22.7281 58.9931
2243 1 5.92631 25.5229 61.3438
2245 1 10.8099 25.6665 61.6266
832 1 13.1813 24.3188 58.8085
834 1 18.4922 23.9461 58.5297
836 1 23.991 24.2005 59.2159
2389 1 21.101 25.6271 70.7494
842 1 3.0689 3.47146 63.984
844 1 7.75237 3.09455 64.5553
846 1 14.2953 3.55223 64.0355
848 1 18.9291 3.34288 63.7922
852 1 29.1839 2.93787 63.7812
854 1 34.1042 3.25685 63.6788
1046 1 23.9245 23.3963 73.7571
857 1 5.28962 5.90784 62.3978
859 1 10.7625 5.40002 61.6325
850 1 22.9448 3.70356 64.5672
865 1 26.2155 6.01295 62.098
856 1 2.96241 8.82283 64.4882
858 1 8.45137 9.06639 63.8169
860 1 12.8587 7.81625 64.1163
862 1 19.3401 7.94702 63.3443
864 1 23.4609 8.41443 64.5342
866 1 28.3654 8.62954 64.3963
881 1 31.7607 10.187 61.4001
735 1 16.2702 11.2754 51.8756
870 1 3.24289 13.3703 63.7559
871 1 5.33077 10.7569 61.4416
872 1 8.10335 13.9409 63.3801
873 1 10.5655 11.371 61.4829
874 1 14.1134 13.7537 63.5051
876 1 18.6521 12.9795 63.1969
878 1 24.1547 13.4302 63.2848
880 1 28.5876 12.7236 63.9023
882 1 33.1577 12.9881 63.8386
884 1 2.75711 17.6734 63.8194
885 1 5.42804 15.6146 60.6181
887 1 11.4745 16.1201 61.1999
888 1 14.5836 18.2453 63.802
889 1 17.2595 15.877 61.057
892 1 24.5424 18.0689 63.3593
893 1 27.7089 16.7464 62.0143
1044 1 19.9531 23.143 74.526
899 1 5.26968 20.9 61.487
886 1 7.99614 18.6464 63.1712
901 1 11.766 21.3059 62.1625
890 1 19.1962 18.9582 63.6168
894 1 29.5796 19.7844 63.703
898 1 2.24418 23.6825 63.818
900 1 8.68851 23.2467 63.8145
902 1 14.028 24.1083 63.6232
904 1 19.048 23.8378 63.3257
906 1 23.8286 24.4064 63.5377
908 1 29.6125 23.6837 63.5841
980 1 34.4374 24.1724 68.8757
1065 1 1.21907 6.34582 76.0674
1083 1 11.3773 11.7183 75.7607
715 1 1.25607 6.2707 51.4275
914 1 8.54138 2.59689 68.6554
915 1 11.0309 1.21397 65.7324
714 1 34.0395 2.69692 54.1494
916 1 14.3245 3.5569 68.5692
918 1 18.0763 3.12537 69.8213
896 1 34.1652 18.9057 62.8521
920 1 24.2911 3.21073 69.1232
2323 1 32.4036 25.6111 65.6783
922 1 28.0133 2.50474 69.5064
924 1 34.3672 3.27941 68.5176
1050 1 34.2892 23.2047 73.5898
1042 1 13.5601 23.5124 73.0459
927 1 6.15832 6.08874 66.3539
929 1 11.3905 5.1724 66.3532
930 1 13.4154 8.92678 68.2185
931 1 16.2829 5.81007 66.4937
933 1 20.385 5.20875 67.1576
935 1 26.5914 5.45272 66.7306
937 1 31.8558 6.07727 66.0068
941 1 5.68454 10.7734 66.867
928 1 9.80853 8.37613 68.1489
945 1 16.5354 10.3776 65.4541
932 1 19.7158 9.3351 68.971
947 1 21.3914 11.325 65.9328
934 1 23.6633 7.79998 69.4288
936 1 28.4406 8.66158 69.4001
1071 1 16.1238 5.72362 74.795
951 1 31.6756 10.6817 66.7199
943 1 11.0043 11.9275 65.2533
944 1 14.211 13.6454 68.0859
949 1 26.0346 10.6458 66.7279
948 1 23.4953 13.7438 68.9151
950 1 29.3112 13.3901 68.3968
853 1 31.5064 0.726025 61.6905
955 1 5.27286 15.8799 66.5483
957 1 11.1274 16.6591 65.7125
959 1 17.2083 16.3262 65.7821
961 1 21.8206 16.1152 66.4076
962 1 24.2577 18.862 68.3933
963 1 26.4031 16.1752 66.1655
965 1 30.9539 16.5386 65.3968
969 1 5.12777 20.3584 65.5534
971 1 12.0953 20.4713 65.9087
956 1 8.668 18.9665 67.6715
958 1 14.2027 18.4725 68.3974
960 1 18.6638 19.3279 67.778
973 1 16.2472 21.8131 66.0956
975 1 21.5399 20.8354 65.8616
977 1 26.147 21.4212 66.0521
979 1 32.5242 20.826 66.0185
970 1 8.3979 23.657 68.4827
972 1 13.8056 23.9276 68.4341
974 1 19.1929 24.5539 67.8623
976 1 24.1227 24.1262 68.0112
978 1 29.5774 23.7225 68.2148
912 1 3.92963 3.40436 69.5268
1040 1 9.31036 23.4484 73.2601
2251 1 26.9398 25.932 60.5489
997 1 6.5852 6.25976 70.4507
999 1 11.2702 6.35071 71.0653
1001 1 15.7505 7.24099 70.8463
1003 1 21.085 5.92125 71.686
1005 1 26.8447 5.41735 71.3571
1007 1 31.5154 5.32453 70.6539
926 1 3.12143 8.7692 69.0912
1009 1 1.06304 10.9684 71.6166
1011 1 6.46542 10.9395 71.163
1013 1 11.1028 11.1525 70.9459
1015 1 16.0157 11.0996 71.1915
1017 1 21.8692 11.3835 72.1354
1019 1 26.1581 11.523 70.7683
1021 1 31.7245 9.95381 70.9029
940 1 3.94151 13.9414 69.7576
942 1 8.4457 14.1633 68.541
946 1 19.0115 13.7223 69.1474
1025 1 6.66091 17.4247 70.93
1027 1 10.685 16.4953 70.4974
1029 1 16.7452 16.3598 70.9141
1031 1 21.492 16.4676 71.367
1033 1 27.8032 16.5505 70.723
1035 1 31.7511 16.7348 70.8409
954 1 2.9233 18.5402 69.7474
1039 1 6.2178 21.6498 71.0333
1041 1 11.8998 20.9621 70.2639
1043 1 16.6927 21.2731 70.6211
1045 1 21.3463 21.4714 70.5657
1047 1 27.0587 21.1573 71.1858
964 1 28.7473 19.2973 68.2432
1049 1 32.1627 20.6428 70.2357
968 1 3.54431 23.1492 68.5395
1099 1 16.6248 15.7077 75.7215
982 1 3.93502 3.13609 74.2928
1038 1 2.8858 23.5504 74.855
984 1 8.63754 3.42883 73.474
986 1 12.7822 3.04044 72.6709
988 1 18.7624 2.96387 74.2389
990 1 23.7971 3.25261 73.3444
992 1 29.6082 2.93846 73.687
994 1 34.121 3.29614 74.9813
996 1 4.36785 8.49263 73.731
998 1 9.26801 7.83343 73.7385
1073 1 21.7808 5.50973 75.6989
2183 1 31.4951 25.7984 55.7702
1000 1 12.7856 8.46707 74.3723
759 1 5.58376 21.2396 52.1293
1002 1 18.8196 9.0253 73.064
1004 1 24.4611 8.35023 73.8161
1006 1 28.982 9.18898 73.7557
1008 1 33.6382 7.58163 74.153
1079 1 1.56557 11.0272 75.6882
1010 1 3.9565 13.9618 73.699
1012 1 8.74247 14.293 73.3971
1014 1 13.4795 13.8261 72.7053
1016 1 18.5952 13.1142 73.5813
1018 1 23.9611 14.0094 73.5891
1089 1 26.5211 11.5664 75.6833
1020 1 29.5032 13.6602 72.8921
1101 1 21.2984 16.3535 75.6646
745 1 6.56185 16.5835 52.2032
1095 1 5.4709 17.0644 75.4009
1097 1 12.2595 16.2348 76.0271
1085 1 16.0063 11.6122 75.8605
1103 1 27.6923 15.8101 75.3978
843 1 5.79776 1.22545 61.8846
1024 1 3.10617 19.4649 73.5647
1075 1 26.7748 5.80271 75.8432
812 1 33.9285 13.3724 58.5988
1026 1 9.23144 18.8222 73.5123
1028 1 13.7844 18.8352 73.8519
1030 1 19.6109 19.1316 73.5224
1113 1 16.6964 21.2057 75.2558
2391 1 27.0211 25.7843 71.2157
1117 1 27.069 20.5596 75.8733
1032 1 24.1939 18.6674 73.0801
1034 1 30.1359 18.7325 74.0134
2179 1 21.5205 25.9591 55.9657
923 1 32.0618 0.897805 66.8914
1069 1 11.9483 4.83998 76.0747
1063 1 31.5025 0.602561 76.2399
1052 1 3.69613 4.11672 78.8395
1054 1 9.12528 3.45269 79.7878
1056 1 14.042 3.63749 79.4148
1058 1 18.4174 3.91497 78.3135