ITEM: TIMESTEP
61000
ITEM: NUMBER OF ATOMS
16000
ITEM: BOX BOUNDS pp pp pp
2.9397604060726934e-01 1.0190602395939470e+02
5.7178684395648744e+00 9.6482131560435590e+01
-5.0906616692141995e+00 1.0729066166921358e+02
ITEM: ATOMS id type x y z
10956 1 0.318405 12.8466 6.12357
10982 1 0.815873 21.2782 6.8994
6 1 15.1305 7.51175 -4.78895
8 1 19.7192 7.51854 -4.05815
10 1 24.3477 7.84442 -2.87973
12 1 28.8137 7.84724 -2.70061
85 1 3.78184 10.4324 -2.98803
87 1 8.537 10.0454 -2.50783
336 1 30.5357 21.2582 22.9977
211 1 1.96779 5.81186 9.21168
89 1 13.233 10.0224 -1.54695
22 1 19.8788 12.2 -3.75939
24 1 23.905 12.5393 -3.56672
26 1 28.262 12.6079 -2.75587
99 1 3.60093 14.3847 -2.64612
101 1 7.97086 15.0122 -1.89805
103 1 13.1362 14.2477 -1.89961
34 1 14.7274 16.817 -4.4997
36 1 19.4924 16.8684 -4.36973
38 1 23.9186 16.3978 -2.93961
40 1 28.6694 17.0436 -3.09464
113 1 3.63215 18.8228 -2.71292
115 1 8.20057 19.3716 -2.0507
117 1 12.7103 19.609 -1.32163
42 1 33.1888 16.891 -1.69488
127 1 3.14353 24.2939 -2.47181
129 1 8.44024 23.995 -1.84827
10995 1 0.690271 26.7683 6.01041
48 1 15.6438 21.3398 -4.75329
50 1 20.2362 21.5616 -3.77159
52 1 24.0659 21.0929 -3.54395
54 1 28.1708 21.4898 -2.24361
56 1 33.5326 21.2061 -2.0596
281 1 1.45117 5.89714 15.6361
46 1 10.8634 21.2739 -4.70413
151 1 25.8113 5.96994 6.76461
1549 1 21.0464 28.1074 6.18263
62 1 15.5187 25.9922 -3.94552
64 1 19.8306 26.1431 -3.90629
66 1 24.2841 25.8176 -3.30948
68 1 28.9749 25.5418 -3.24094
10878 1 0.95117 8.26293 -0.085109
72 1 5.53569 8.32168 0.331754
74 1 10.1236 7.74521 1.21812
76 1 15.1308 7.5111 1.95808
77 1 17.1344 5.79597 -1.10178
10943 1 0.63634 7.84608 5.87358
14 1 33.144 8.03545 -1.9977
10891 1 1.39421 12.633 0.0529082
86 1 5.95286 12.3307 0.637409
88 1 10.2694 12.2448 1.18089
91 1 17.4279 9.84689 -0.61015
93 1 22.1068 9.71802 -0.508623
95 1 26.0706 10.2972 -0.0390071
97 1 30.5621 10.3055 0.916824
28 1 33.6773 12.346 -2.35225
100 1 5.50553 16.2931 0.503719
102 1 10.2002 16.3857 1.07552
105 1 17.1496 14.4786 -1.00794
107 1 21.7469 14.2564 -0.292268
109 1 26.3896 14.537 0.0925776
111 1 30.7093 14.3385 0.505386
114 1 5.5923 21.7312 -0.0195962
116 1 10.182 21.1097 1.15783
119 1 17.3051 19.0947 -1.24325
121 1 21.4739 19.1353 -0.670685
123 1 26.0835 19.201 0.254053
125 1 30.6285 19.0778 0.895974
10917 1 0.879875 21.7248 0.143522
131 1 13.0596 23.8762 -1.59083
118 1 14.4716 21.2798 1.7797
133 1 17.1907 23.8992 -1.01136
135 1 21.8349 23.8631 -0.368134
137 1 26.6262 24.1314 0.722154
139 1 30.8811 23.8063 0.898515
10930 1 1.00776 26.4393 0.46447
128 1 5.82943 25.9966 0.911005
130 1 10.4447 26.4653 1.46376
132 1 14.5067 26.0315 2.19752
134 1 19.237 25.8565 2.37083
10904 1 0.904628 16.9849 -0.000768254
70 1 33.4643 26.0568 -2.37794
10969 1 0.650563 17.3186 6.0677
1611 1 2.70694 28.1423 9.10478
78 1 19.5623 7.81877 3.20228
80 1 23.484 7.61231 3.45069
82 1 28.2602 7.93741 3.54923
84 1 32.8616 8.09341 4.5085
155 1 3.05218 9.84937 3.47548
157 1 7.65811 10.641 3.64988
159 1 12.2617 10.1066 4.59517
90 1 15.0406 12.0038 1.50866
161 1 16.7023 10.2648 5.65973
92 1 18.7895 12.4373 2.90179
94 1 23.434 12.404 3.13147
96 1 27.7655 12.6826 3.5541
98 1 32.536 12.0974 3.95084
169 1 2.89404 14.4753 3.36298
171 1 7.53485 15.2625 3.56687
173 1 11.9849 14.2385 4.30872
175 1 16.5843 14.3678 5.44543
106 1 19.1475 16.888 2.43193
112 1 32.6916 16.604 3.86897
183 1 4.114 18.6815 3.23703
185 1 7.94498 19.1709 4.02881
104 1 15.0253 16.6554 2.20328
187 1 11.9041 18.736 4.41901
108 1 23.7745 16.9047 3.14491
110 1 28.2507 16.954 3.33571
197 1 3.30047 23.2131 3.54683
199 1 7.88204 23.9812 4.52534
201 1 12.2289 23.9065 4.87873
120 1 19.1269 21.1703 2.29432
203 1 16.3865 23.7769 5.19542
122 1 23.6718 21.1778 2.93186
124 1 28.1148 21.4883 3.75679
126 1 32.6113 21.4595 4.03276
5783 1 34.2424 23.8248 7.79166
369 1 10.0053 10.1069 22.871
147 1 16.8665 5.50295 5.74354
221 1 24.9181 5.59139 12.9855
136 1 23.9443 25.7764 3.36184
138 1 28.1488 25.8514 4.1751
140 1 32.6442 25.7122 4.12194
142 1 5.46116 7.9559 6.77064
144 1 9.10572 7.83297 7.24961
146 1 13.9413 7.87797 8.36738
148 1 18.4512 7.34993 8.8774
156 1 4.87699 12.274 7.10317
158 1 9.60687 12.3461 7.92988
160 1 14.2554 12.3548 8.37232
162 1 18.7488 12.3642 9.11595
163 1 20.8012 10.5451 6.42847
164 1 22.6786 12.7532 9.35428
165 1 25.3963 10.4173 6.65203
167 1 30.1924 10.173 6.89237
170 1 5.22116 16.8073 6.98836
172 1 9.4745 17.2094 6.94597
174 1 13.9235 16.9715 8.38025
176 1 18.1817 17.0221 9.23784
177 1 21.3389 15.0894 6.20233
179 1 25.7878 14.3951 6.50864
181 1 30.1669 14.9104 6.99635
189 1 16.7669 19.1637 5.37525
191 1 20.9492 19.2684 6.15701
193 1 25.3909 18.868 6.49567
195 1 30.1435 18.944 6.98674
153 1 30.4161 5.80335 6.45078
184 1 5.25751 21.5558 6.57495
186 1 9.84312 21.835 7.07081
188 1 14.076 21.4012 7.37292
190 1 18.6721 21.2416 8.60472
205 1 21.1688 24.0135 5.40587
207 1 25.7703 23.6667 6.33725
209 1 30.2205 23.7057 7.558
198 1 5.28282 26.3232 6.46697
200 1 9.40137 26.3797 7.9831
202 1 14.2123 25.843 8.4456
204 1 18.2608 25.6878 8.91038
348 1 27.2288 26.171 22.7158
5848 1 33.6311 23.9024 14.084
367 1 5.56316 10.4038 22.65
150 1 22.8174 8.10419 9.61588
152 1 27.6569 8.44129 9.46698
154 1 32.0997 7.8707 10.4668
225 1 2.42432 10.4639 9.47244
227 1 7.16366 10.0676 10.5973
229 1 10.952 10.2533 10.8457
231 1 15.9993 9.88389 12.0665
233 1 20.5179 10.5491 13.0254
235 1 25.2029 10.3126 12.8275
166 1 27.8506 12.9322 9.60279
168 1 32.4264 12.4325 11.1006
239 1 1.77909 15.2321 9.26971
241 1 7.45442 14.5782 10.2878
243 1 11.4497 14.9377 11.0418
245 1 15.8606 14.7001 12.1651
247 1 20.9372 14.6858 12.059
180 1 27.41 16.9387 10.1017
253 1 2.40579 19.3327 9.86234
255 1 7.14533 19.5498 10.3576
257 1 11.6737 19.0342 10.5589
259 1 15.9736 19.5407 11.3792
261 1 20.7344 19.5182 12.3464
178 1 22.6265 17.3681 9.30421
182 1 32.1383 16.8741 10.85
267 1 2.47285 23.9253 9.50267
269 1 6.75565 24.2303 10.2954
271 1 11.3425 23.6452 11.1731
273 1 15.5938 24.0714 12.2498
275 1 20.0871 23.5618 11.8359
192 1 23.4302 21.9367 9.20865
277 1 24.8591 23.8886 12.5189
194 1 27.6888 21.2592 9.95293
196 1 32.1508 20.8285 10.7551
409 1 5.34577 24.05 22.6285
1615 1 11.4898 28.2087 11.2609
381 1 5.36016 14.9352 22.5907
206 1 22.912 26.3913 9.08424
208 1 27.6935 25.84 10.1955
210 1 32.1064 25.5649 10.5911
212 1 4.35894 7.96231 12.7497
214 1 8.77919 7.29997 13.8053
216 1 13.4193 7.71934 13.8784
218 1 17.8551 7.99564 14.9118
5809 1 33.7018 10.0954 14.0957
220 1 22.6686 8.25201 15.5209
222 1 27.0196 8.18599 16.3403
226 1 4.43042 12.7323 12.3082
295 1 1.76801 10.5782 15.6112
228 1 8.4862 12.4613 14.2996
230 1 13.396 12.0098 14.4068
232 1 18.0373 12.5416 15.1688
234 1 22.4289 12.8606 15.4575
237 1 29.1586 10.5216 13.3805
236 1 26.8787 12.473 16.1192
149 1 20.9672 5.54668 6.1658
309 1 2.4595 14.4941 15.3407
240 1 4.47832 17.3709 12.445
242 1 8.81765 16.8582 13.9432
246 1 17.7584 16.9749 14.7153
248 1 22.3843 17.498 15.5557
249 1 24.6821 14.4919 12.7602
250 1 26.8707 17.1283 16.1048
251 1 29.5483 15.1551 13.4458
346 1 22.056 25.7783 22.156
323 1 1.66853 19.5375 15.7746
244 1 13.0915 17.124 14.2331
263 1 25.5131 19.2175 12.7374
265 1 29.6605 19.3105 13.7101
353 1 5.66516 5.79477 22.252
254 1 4.30934 21.6004 13.3239
256 1 9.38128 21.3792 13.9218
258 1 13.3698 21.2812 14.3811
260 1 18.1279 21.607 14.692
262 1 22.8357 22.2181 15.5094
279 1 29.4397 23.8459 13.0818
143 1 7.88819 6.21966 3.78319
1551 1 25.6988 27.542 6.68744
268 1 4.28882 26.2589 12.5151
270 1 8.70167 26.0662 14.0047
272 1 13.4427 26.9779 14.4887
274 1 17.9139 26.264 14.9892
276 1 22.6582 26.3416 15.751
344 1 17.3859 26.3153 21.1853
5913 1 33.5512 23.6031 20.2037
282 1 3.47442 8.32229 19.1982
342 1 13.4171 26.2152 20.4147
1481 1 25.9896 27.7716 -0.351822
349 1 28.8799 24.2111 19.9007
224 1 31.5329 8.4261 17.1929
296 1 3.35399 12.7289 19.0826
297 1 6.17721 10.0794 16.6516
299 1 10.6604 9.46029 17.0069
301 1 14.7422 9.71922 18.0148
303 1 19.7235 9.76093 18.2192
305 1 24.4529 10.0837 19.2658
238 1 31.4728 13.1751 16.6256
311 1 5.94554 14.7945 16.6145
313 1 10.4868 14.2455 17.4137
315 1 15.2498 14.0668 17.4179
317 1 19.6434 14.5021 18.3232
319 1 24.2652 14.5678 18.6506
321 1 29.2605 14.7126 19.484
310 1 3.76059 17.7319 19.3315
325 1 6.32417 19.1752 16.7832
327 1 10.9104 18.9713 17.6606
329 1 15.6258 19.3299 17.8531
331 1 19.9975 19.1888 17.9389
252 1 31.5788 17.3318 17.0051
337 1 2.03175 23.8654 15.5358
324 1 3.76251 22.2045 19.4349
339 1 6.25631 23.8807 16.3979
341 1 10.7536 24.1533 17.0041
343 1 15.3709 24.1658 17.7177
345 1 19.7066 23.896 18.4986
347 1 24.2051 24.1306 19.37
264 1 27.0558 21.5689 15.8096
266 1 31.1819 21.4768 16.7688
41 1 31.8919 14.5738 -5.01111
340 1 8.65882 26.0271 19.8124
32 1 10.6496 16.6872 -4.356
60 1 10.8286 26.0325 -5.04855
20 1 15.5289 12.3162 -4.67405
278 1 26.9348 26.2907 16.1435
395 1 5.79337 20.0646 22.8743
280 1 31.6823 25.9236 16.6276
338 1 3.53095 26.6558 19.1288
284 1 7.86042 7.78155 20.2106
286 1 12.3961 7.68161 20.9907
288 1 17.0737 7.92011 21.6168
290 1 21.7834 7.88746 21.4385
292 1 26.8306 7.45303 22.4484
223 1 29.1916 5.75579 13.0314
365 1 0.963943 10.3359 22.2288
1479 1 21.7211 28.1462 -0.160104
298 1 8.01521 12.0572 20.0055
300 1 12.7553 12.0257 20.315
302 1 17.5237 11.8898 21.1197
304 1 21.5476 12.4123 21.7535
306 1 26.2132 12.6674 22.4319
307 1 29.0923 10.565 19.707
294 1 30.7771 7.56923 23.0925
5874 1 33.8156 9.548 20.125
379 1 1.38675 15.1993 22.4712
312 1 8.42297 17.2265 19.9063
318 1 21.8691 17.1042 21.7461
320 1 26.2729 16.5036 21.7794
1483 1 30.5549 27.9231 0.618495
5887 1 32.9018 13.6822 20.0998
393 1 1.36345 19.0586 21.957
1621 1 25.1896 28.1256 12.2431
314 1 13.0265 15.9398 19.787
316 1 17.5011 16.6901 20.7883
333 1 24.5836 19.4244 18.7679
335 1 28.8509 19.6564 19.7483
5900 1 33.4175 19.6184 19.9217
407 1 1.39176 23.8043 22.1157
334 1 25.9631 21.8948 22.5944
326 1 8.18971 21.3705 19.977
328 1 12.6914 21.8775 20.7925
330 1 17.1871 21.4176 20.8502
332 1 21.5575 21.687 21.1685
7161 1 33.6812 28.1005 20.0153
351 1 1.08305 5.97123 21.5174
7096 1 33.5827 27.8455 13.9047
1691 1 24.6771 28.4641 19.3982
79 1 21.8379 5.76251 -0.347227
71 1 3.59583 5.76085 -2.91294
83 1 30.7068 6.03544 1.22403
219 1 20.2184 6.19376 12.1484
1619 1 20.8479 28.2194 11.7268
1689 1 20.4012 28.369 18.1503
215 1 11.1908 5.9029 10.9634
350 1 30.9954 26.0137 22.9258
16 1 6.44693 13.0337 -5.19059
352 1 2.40668 8.3394 25.3263
354 1 7.68547 7.86535 25.8861
356 1 12.161 7.92084 27.0059
567 1 12.7208 6.0753 42.3922
698 1 26.4596 25.9475 49.9824
366 1 2.58095 12.7478 25.4787
6056 1 33.2237 5.79724 36.8491
368 1 7.39987 12.5312 25.9188
371 1 14.4854 10.3402 24.3435
373 1 19.8773 10.0189 24.6952
375 1 24.7637 9.46111 24.8351
377 1 28.246 10.1314 26.0714
5939 1 32.8921 10.0277 26.3312
411 1 10.0476 24.205 22.9012
477 1 0.357942 24.1435 27.8168
385 1 14.6525 14.3448 23.9782
387 1 19.1375 14.791 24.6111
389 1 23.4625 15.0253 25.2177
391 1 28.0245 14.7402 25.7136
380 1 2.68977 16.842 25.9695
382 1 7.5077 17.3578 26.2391
397 1 10.5436 19.4787 23.3347
399 1 15.2657 19.4784 23.6942
401 1 18.9838 19.3181 24.5716
403 1 23.5911 19.5801 24.9929
405 1 27.7142 18.6413 25.7099
5965 1 32.8105 19.5023 26.3701
394 1 3.52312 21.3918 25.4382
396 1 8.44486 22.0074 26.332
421 1 0.568498 5.91717 27.9378
413 1 14.8195 24.1102 24.144
415 1 18.627 24.1139 24.5355
417 1 23.9211 23.9904 25.3492
419 1 28.5052 23.4985 26.2683
571 1 21.745 5.80505 43.7395
408 1 3.71696 26.134 25.4703
410 1 8.30384 26.2103 25.7929
643 1 29.3713 5.99926 47.06
412 1 12.3838 26.2046 26.4598
499 1 18.6948 5.94735 36.8233
573 1 28.2454 6.20765 42.6897
633 1 3.28815 5.69039 48.1097
1763 1 28.2116 28.2041 26.0016
683 1 23.4146 19.48 48.3771
7226 1 32.8337 28.409 26.6694
674 1 0.84866 22.1965 50.4791
689 1 3.56481 24.1478 47.8177
358 1 17.0197 8.1706 27.6132
360 1 21.8555 7.77482 28.1081
362 1 25.8818 7.75873 28.6429
364 1 30.4234 8.02563 29.765
637 1 12.5235 5.71409 48.7319
437 1 5.14746 10.5342 28.7372
439 1 9.55252 10.0783 29.4414
370 1 12.0411 12.6326 26.4559
372 1 16.7506 12.4037 27.5218
374 1 21.4014 12.7467 28.111
376 1 25.8204 12.2398 28.6835
378 1 30.9285 12.2944 29.4216
641 1 23.105 5.92607 48.2859
451 1 5.34043 15.2965 28.4479
453 1 9.42968 14.7452 29.5704
455 1 13.8077 14.9955 29.9459
388 1 20.6307 17.1026 27.3418
390 1 25.4404 16.835 28.1392
5952 1 32.5893 14.7 26.4424
308 1 30.8026 12.7907 23.6199
465 1 4.70694 19.8407 28.7854
467 1 9.33043 19.4599 29.5753
384 1 12.1357 17.3008 26.6497
386 1 16.0463 17.0367 27.5666
392 1 29.977 17.189 29.295
479 1 5.15659 24.1834 28.5707
481 1 10.1867 24.7897 29.8645
398 1 12.4842 21.9516 26.734
400 1 16.5811 21.6758 27.5692
402 1 21.0287 20.9821 27.9203
404 1 25.6452 21.3292 28.6566
406 1 30.454 20.9494 29.283
5978 1 32.825 23.7208 26.4901
688 1 0.408009 26.6641 50.4165
322 1 31.1393 16.7549 23.0133
414 1 16.9299 26.3586 27.2363
416 1 21.471 25.4892 27.8232
418 1 25.4957 25.9151 28.7698
420 1 30.2945 25.6882 29.1373
422 1 2.62886 7.8433 30.9927
424 1 7.13443 8.09525 32.3852
426 1 11.1289 8.05576 33.0861
681 1 16.3676 19.8023 49.5931
497 1 13.9976 5.82915 36.1833
686 1 32.824 21.212 48.3765
449 1 0.364596 14.8801 28.0719
436 1 2.16303 12.6485 31.7352
438 1 6.86788 12.8173 32.0779
440 1 11.5434 13.0205 32.666
441 1 13.7038 9.95401 30.172
443 1 18.7294 10.6278 31.2043
445 1 23.5463 9.71061 31.0205
447 1 27.9962 10.0858 32.4985
6004 1 32.6926 9.86739 33.1226
452 1 7.27501 17.2544 32.0449
457 1 18.2739 14.6408 30.9333
456 1 16.1771 17.2861 33.8614
459 1 23.671 14.3388 31.4899
461 1 27.6146 14.7143 31.777
6017 1 32.1639 14.6686 32.5469
450 1 2.49398 16.8661 31.4797
454 1 11.5715 17.1818 33.018
469 1 14.236 18.8871 30.3683
471 1 19.0288 19.107 30.9778
473 1 22.8847 19.2864 31.3097
475 1 28.1939 19.3351 31.9198
6030 1 31.8204 19.3517 32.7674
464 1 2.7446 21.5367 31.4238
466 1 6.92362 22.1754 32.3959
468 1 11.6171 21.7676 33.0052
483 1 14.1162 24.4642 30.2579
485 1 18.6313 23.8524 31.0419
487 1 23.0799 23.8276 31.329
489 1 27.5571 23.9724 32.1181
6043 1 32.2427 23.9271 32.4909
478 1 2.81996 26.4413 31.7134
480 1 7.19302 26.0724 32.1768
482 1 11.6156 27.1469 33.2421
1903 1 26.9055 28.3386 38.6331
697 1 23.0302 23.8833 48.4491
503 1 26.9424 6.24117 38.3387
425 1 9.20563 6.1894 29.2659
428 1 16.3826 8.54572 33.6611
430 1 20.8482 8.09216 34.5264
432 1 25.4415 8.30929 35.1149
434 1 29.7945 8.41111 35.7561
507 1 4.26505 10.3751 35.339
509 1 8.85679 10.328 35.6039
511 1 13.4284 10.6381 36.4658
442 1 16.084 12.5968 33.4056
444 1 20.0263 12.964 34.0519
446 1 24.718 12.2934 34.7633
448 1 29.5515 12.7896 35.2253
700 1 32.8029 25.8041 48.8368
521 1 4.53891 14.8863 35.1317
523 1 9.16337 14.9095 35.5537
525 1 13.7348 14.6302 36.359
462 1 29.4124 17.2191 35.5633
535 1 4.21647 19.5364 35.1856
537 1 8.8799 19.4983 35.8517
539 1 13.8747 19.4586 36.4544
541 1 17.946 19.3201 36.8375
458 1 20.9986 16.8487 34.0888
460 1 25.155 17.3867 34.8086
6095 1 33.2075 18.836 37.5821
549 1 4.52795 24.0169 35.0087
551 1 9.14554 23.7757 35.7447
553 1 13.82 24.0459 36.2741
470 1 16.0905 21.8894 33.6629
472 1 20.9324 22.1253 33.8572
474 1 25.4248 21.6724 34.7052
476 1 30.0068 21.8263 35.5009
6108 1 33.5266 23.3667 36.965
433 1 28.0327 5.78444 32.1349
684 1 26.4348 21.3852 50.1783
484 1 16.3071 26.6386 33.6777
486 1 20.5438 26.3395 34.2396
488 1 24.8832 26.2584 35.0598
490 1 29.5982 26.5819 35.3383
492 1 2.21501 7.8013 37.9986
494 1 6.02071 7.99938 38.8015
496 1 10.7692 7.93524 39.0171
498 1 15.3994 8.24274 39.9996
500 1 19.762 8.47716 40.5236
502 1 24.3884 8.50527 40.8072
504 1 31.0711 8.60739 40.8856
506 1 2.01511 12.4222 38.1815
508 1 6.52328 12.0655 38.3594
510 1 11.1915 12.7873 38.9581
513 1 18.095 10.6554 37.301
512 1 15.4685 12.8626 40.3127
515 1 22.3873 10.5103 38.268
514 1 20.192 12.77 40.7647
517 1 27.1425 10.3949 38.2936
6069 1 33.7092 10.4934 37.6228
518 1 30.975 12.8739 39.4817
524 1 11.1812 17.2502 39.2332
527 1 17.9982 14.8893 37.0414
529 1 22.2032 15.0756 37.7074
531 1 26.874 14.7711 38.1727
6082 1 33.3249 15.056 37.231
532 1 30.2519 17.6935 39.6222
520 1 1.99381 17.0469 38.488
522 1 6.74309 16.6831 38.8169
526 1 15.855 17.4914 39.6464
543 1 22.5262 19.6591 37.6287
528 1 19.6603 17.8062 40.2201
545 1 27.146 20.2001 38.6288
534 1 1.92552 21.6178 38.3839
536 1 6.37336 21.2152 38.4142
538 1 10.7628 21.8403 39.005
555 1 18.1129 23.9438 37.3509
540 1 15.784 22.0188 40.0305
557 1 22.4106 23.5501 37.1903
559 1 27.7147 23.9909 37.926
546 1 30.9722 21.7549 40.5363
548 1 2.33358 26.9398 38.1289
550 1 6.02252 25.498 38.419
552 1 10.7476 26.6737 38.9846
554 1 15.3607 26.5849 40.0599
361 1 23.5663 5.78804 25.0306
679 1 11.629 19.2732 49.2823
560 1 30.6975 25.5828 39.7388
357 1 14.5182 6.41112 24.1035
1829 1 18.9028 28.247 30.2973
695 1 17.1536 23.5932 49.2827
569 1 17.1424 5.73172 43.397
577 1 4.22577 10.0408 41.6672
579 1 8.84509 10.1415 41.8202
581 1 12.5471 10.4519 42.4632
583 1 17.5441 11.0055 43.1397
585 1 21.6405 10.7649 44.0044
516 1 24.5128 13.4679 41.1451
587 1 28.2761 10.6861 42.824
591 1 4.23335 14.7236 41.6285
593 1 8.24892 14.6461 41.8329
595 1 12.8393 15.1736 42.6176
597 1 17.3189 14.9914 43.2266
601 1 28.6475 15.4405 42.4393
605 1 3.87341 19.9973 41.1143
590 1 1.87149 17.3889 43.3861
607 1 7.88536 19.2075 41.9859
609 1 12.8295 19.6591 42.8336
611 1 17.5989 19.1221 43.2625
613 1 21.984 19.6835 43.9581
530 1 24.6979 17.2925 41.033
615 1 27.7692 19.6231 43.1881
619 1 3.57005 24.3097 41.986
621 1 8.39327 23.8229 41.5015
623 1 13.1103 24.337 42.3321
625 1 17.6488 24.4535 43.495
542 1 19.7716 21.8502 40.2921
627 1 21.7404 23.8617 44.0126
544 1 24.5468 21.9917 40.9352
629 1 28.4743 23.9451 42.6018
565 1 7.95488 5.83921 42.1581
691 1 8.06884 24.0808 48.6263
556 1 19.9339 26.2015 41.0092
558 1 24.6627 26.3274 41.2144
693 1 12.5061 23.7496 49.4793
562 1 1.8197 7.93293 44.9687
564 1 6.36142 7.76343 45.1074
566 1 10.5444 7.55642 45.6784
568 1 15.0107 8.66192 46.2032
570 1 19.6084 7.85231 46.9166
572 1 25.4423 8.20522 45.3766
574 1 31.6596 8.0384 44.8586
576 1 1.88078 12.13 44.3312
578 1 6.16789 12.265 45.4916
580 1 10.3036 12.7759 45.4786
649 1 8.05247 10.2704 48.6759
582 1 15.0719 12.532 45.7275
584 1 19.0311 13.1014 47.0392
586 1 25.5543 12.8615 45.0865
657 1 28.8345 10.6969 47.1649
588 1 31.5533 12.2226 44.1507
594 1 9.8096 17.4991 45.0847
599 1 21.973 15.8441 43.7809
598 1 19.5974 17.4009 46.7485
671 1 29.9858 15.4141 46.8396
592 1 5.929 17.0116 45.1695
596 1 14.3505 17.1133 46.2379
600 1 26.0845 16.739 45.2635
685 1 29.3205 19.1737 47.5662
602 1 32.394 16.7678 43.8324
604 1 1.50728 21.4868 44.604
606 1 6.18418 21.585 44.7832
608 1 10.3848 22.1587 45.6535
610 1 14.5094 21.621 45.8281
612 1 18.5971 21.153 46.4192
614 1 25.7246 21.5339 45.4832
699 1 29.2078 23.9475 47.6558
616 1 32.0488 21.3852 44.3313
618 1 1.18551 26.7443 44.7957
620 1 6.04285 26.1146 44.932
622 1 10.008 25.9722 45.4288
624 1 14.6796 26.0346 46.2411
626 1 19.3426 26.522 46.6075
628 1 25.4791 25.9172 45.8116
630 1 31.7544 25.8874 44.158
1901 1 22.3146 28.1674 37.5089
2037 1 12.3237 28.2595 49.0217
646 1 0.995973 13.6972 50.9879
1895 1 8.3846 28.4137 36.077
639 1 17.1209 5.95522 49.5492
1761 1 23.7686 28.2866 25.0045
1965 1 8.35004 28.1829 41.6007
642 1 26.3822 8.50065 49.9609
644 1 33.1379 8.15615 49.2015
647 1 3.46986 10.4576 48.5473
1759 1 19.3917 28.4611 24.768
651 1 12.0815 10.5544 48.7013
653 1 16.6428 10.2716 49.385
2039 1 16.768 28.1939 49.2711
655 1 23.168 10.6504 48.3796
656 1 27.0695 12.7207 49.9935
658 1 32.8313 12.261 48.7691
677 1 7.4112 19.8065 48.2968
661 1 3.76415 15.0364 47.7525
663 1 8.00228 15.1207 48.2768
665 1 12.3357 15.2211 49.6383
667 1 16.9706 15.0527 49.6065
7291 1 32.2785 27.7569 32.9602
670 1 27.0278 16.9525 50.1744
669 1 23.3533 14.9152 48.2891
672 1 33.3325 16.7205 48.5073
675 1 2.8775 19.6729 47.5128
660 1 0.744237 17.899 50.1898
1897 1 13.2992 28.5794 36.8452
2035 1 7.70041 28.2792 48.3846
1971 1 22.1147 28.5401 43.6651
2041 1 22.944 28.0072 49.0817
1821 1 0.621019 28.1806 28.6399
2043 1 28.969 28.0145 47.2478
1823 1 5.55808 27.8353 29.1482
427 1 14.2546 5.98134 30.6927
682 1 20.434 21.5345 50.5181
640 1 21.0759 8.40223 51.008
383 1 10.1131 14.96 23.3746
985 1 9.40036 6.22614 74.0114
636 1 9.82764 8.00832 51.9983
638 1 14.6086 7.87866 52.0087
709 1 17.608 5.86248 54.2282
1061 1 29.9656 6.02558 74.6299
713 1 29.9395 5.98957 51.9276
712 1 27.6164 8.54016 54.4739
662 1 5.07925 17.874 51.1632
634 1 5.58398 8.02678 51.3212
650 1 10.1746 12.7975 52.0778
652 1 14.0544 12.6148 52.5184
723 1 17.8615 10.4316 53.6829
725 1 24.0777 10.7101 53.3551
726 1 28.0313 13.0985 55.156
728 1 33.9158 12.3753 53.4757
731 1 2.8985 15.199 54.022
733 1 7.50701 15.0401 54.6504
845 1 7.55113 6.26848 64.8614
664 1 9.71577 17.3508 51.9969
737 1 17.5975 15.1442 54.1273
739 1 24.0972 14.6989 53.107
741 1 30.3975 15.0034 51.6585
745 1 2.30253 19.6143 54.5752
666 1 14.571 17.5341 52.5631
751 1 17.931 19.6325 54.0677
753 1 24.2286 19.4041 52.9739
912 1 0.47589 7.84643 73.6102
740 1 27.5072 17.465 54.6597
913 1 2.93466 6.42469 70.8757
759 1 2.66471 24.4759 53.6708
989 1 22.574 5.65993 71.8261
678 1 9.58404 21.9884 51.8522
680 1 14.1529 22.2194 52.6406
765 1 17.6981 24.2837 53.5301
919 1 21.0117 5.86699 67.2635
767 1 23.6923 24.0491 52.9554
769 1 29.879 23.9733 51.8563
754 1 27.7809 21.8966 54.6368
756 1 33.7591 21.5029 53.1651
654 1 20.3712 12.8847 51.4894
692 1 10.1297 26.5619 51.9947
694 1 14.3983 26.7521 52.2073
727 1 30.2473 10.4389 51.6534
968 1 0.264265 26.1757 73.8946
768 1 27.4863 25.9424 54.6137
676 1 4.52497 22.0837 51.122
770 1 33.8283 25.8667 53.2118
704 1 4.96298 7.93992 56.7928
705 1 7.38066 5.72934 54.647
706 1 9.69549 8.29279 58.025
707 1 11.897 6.08081 55.6366
708 1 15.5834 7.95102 57.0425
710 1 21.5423 8.67989 55.4968
1086 1 20.9959 17.1514 79.1761
773 1 2.11327 6.08439 60.1968
717 1 3.5373 10.8297 53.2491
719 1 7.11163 10.4357 54.7783
718 1 5.04673 12.7137 57.3387
721 1 12.0278 10.4253 55.19
722 1 15.7275 12.5784 56.7673
724 1 21.3691 12.7084 54.9944
793 1 18.6238 10.1483 58.2162
795 1 25.222 10.2138 57.6724
797 1 31.5376 10.2373 56.4641
735 1 12.2647 15.4037 55.5727
807 1 19.0625 15.0377 58.7075
738 1 21.8433 17.5308 55.7341
809 1 25.0465 15.2586 56.8205
811 1 31.3274 14.8145 55.9377
747 1 6.38392 19.5449 54.688
732 1 4.88557 17.2907 57.5585
749 1 11.8582 19.4127 55.2747
736 1 15.3854 17.2418 57.4175
823 1 25.1282 19.6284 57.3925
825 1 31.247 19.2922 56.3863
761 1 7.20367 23.7828 54.8117
746 1 4.97764 22.0805 58.1039
748 1 9.5762 21.8259 58.2216
763 1 11.7701 24.0206 55.0007
750 1 15.6277 22.0264 56.9379
752 1 20.9486 21.7416 55.2182
837 1 25.163 24.4076 57.3442
839 1 31.3875 23.8954 56.2798
690 1 5.22425 26.3216 51.6493
760 1 4.71451 25.9123 57.8627
764 1 15.3766 26.5362 57.005
766 1 21.9006 26.2905 55.44
1035 1 33.3306 20.1266 69.1004
923 1 32.9244 5.67995 65.1956
778 1 16.3125 7.57118 61.3849
780 1 22.3141 8.31895 60.425
702 1 0.753815 8.71763 55.9752
782 1 28.7277 8.0117 58.8419
991 1 28.3427 6.11678 70.7347
787 1 2.54388 10.1559 59.275
789 1 7.00109 10.4879 60.8897
720 1 9.91845 12.6974 57.9462
791 1 13.1917 10.0744 59.8451
794 1 21.9017 12.7261 59.5111
865 1 26.0023 10.5437 61.7984
796 1 29.2293 12.6387 59.1626
867 1 32.6795 10.612 61.0219
801 1 2.34212 14.8514 59.4079
803 1 7.3026 15.1159 61.2921
734 1 9.4313 18.0474 58.2394
805 1 13.4741 15.2561 59.8093
881 1 31.8327 15.2505 60.5934
815 1 1.87707 19.3629 60.4371
817 1 7.20429 19.1123 61.2971
819 1 12.8507 19.3483 59.7504
806 1 16.6803 18.2616 61.5292
821 1 19.2535 19.5942 58.713
808 1 22.5631 17.2244 60.3669
810 1 28.7622 17.2878 58.9087
893 1 26.1901 19.3727 61.6843
895 1 32.0612 19.8523 61.2997
829 1 2.2514 23.7193 60.8292
831 1 6.6704 23.8313 61.3848
833 1 13.0104 23.7533 60.1762
835 1 19.2301 24.2218 58.3536
820 1 16.7752 22.1077 62.0086
822 1 22.5545 22.0722 60.3158
824 1 28.4496 21.5831 59.0532
909 1 32.2943 24.3533 60.8321
762 1 9.3448 26.1464 58.2452
834 1 16.4843 26.6816 61.136
836 1 22.8285 26.4615 60.0089
838 1 28.9911 26.6523 58.9486
1119 1 33.8242 24.3304 75.9989
774 1 3.95024 8.43407 63.2302
776 1 10.1711 8.66957 62.6102
632 1 0.946253 7.91709 51.7058
850 1 23.5836 8.22103 64.9416
852 1 29.6749 8.28097 63.5665
788 1 4.32468 13.148 63.2579
790 1 10.5797 12.9192 62.5215
861 1 13.9947 10.5256 64.3478
792 1 16.8139 12.7877 61.4784
863 1 19.9216 10.0505 62.9602
864 1 23.3367 12.9083 64.1337
866 1 29.7987 12.8782 63.3332
875 1 14.0634 15.171 64.2867
877 1 19.5605 15.3974 62.513
879 1 25.8756 14.6981 61.4617
878 1 23.43 17.3719 64.3042
951 1 33.6927 14.7124 65
802 1 3.82236 17.0932 63.9515
804 1 10.5467 16.8016 62.9565
889 1 13.7599 19.5956 64.6577
891 1 19.9958 20.2898 63.0574
880 1 29.1256 17.582 63.5112
816 1 4.17957 22.7995 64.3992
818 1 10.0181 21.5866 62.8219
903 1 13.9987 24.5257 63.8905
905 1 20.0321 24.1585 62.8332
907 1 26.6223 24.2161 61.8397
892 1 23.7072 22.0917 64.8485
894 1 29.8008 21.5331 63.7696
830 1 4.04037 26.8734 63.845
832 1 10.1124 25.9882 62.8742
786 1 0.499424 12.553 62.8385
906 1 23.3183 26.1565 64.751
908 1 29.8472 26.2856 63.5071
844 1 5.54295 8.042 67.5066
846 1 11.0722 8.7368 66.4211
917 1 15.7146 5.84816 69.3475
848 1 17.687 8.31283 65.8435
1021 1 33.4305 16.2769 68.4148
781 1 25.4191 6.0328 57.847
922 1 30.9122 8.32102 67.3778
857 1 1.82328 10.5165 66.1882
858 1 4.91285 12.7053 67.9403
859 1 6.9599 10.7612 64.8221
860 1 11.2745 13.1985 67.1833
931 1 14.9821 10.2405 68.1067
862 1 17.7002 12.7953 66.131
933 1 20.9744 9.91922 67.1375
934 1 24.0325 12.7167 69.3977
935 1 26.8588 10.9052 66.4307
937 1 32.7398 10.9012 65.1727
936 1 30.2955 12.7566 67.7495
871 1 1.86861 14.8283 66.5062
873 1 8.05863 15.0656 65.1701
874 1 11.6402 17.4182 67.3273
945 1 15.295 14.9813 68.4151
947 1 21.2366 14.5839 67.3664
949 1 26.4815 14.8518 66.0093
950 1 29.8756 17.2479 67.7747
885 1 1.5386 19.5504 66.7839
887 1 7.58682 19.6404 65.0883
876 1 17.5776 17.4239 66.1201
961 1 20.8237 19.1278 67.0388
948 1 24.1445 16.7984 69.0093
963 1 26.3525 19.527 66.3874
965 1 33.2099 19.4739 65.1865
899 1 1.78845 24.389 66.624
901 1 7.91765 23.9044 65.5818
886 1 5.39477 21.6304 67.9763
888 1 11.7147 21.8402 67.274
890 1 17.2152 22.0975 66.0972
975 1 21.149 23.3778 67.1592
977 1 27.0846 24.128 66.3066
979 1 33.1363 24.0416 64.6121
964 1 30.0358 21.8936 67.5598
900 1 5.28451 25.5207 67.9045
902 1 11.867 26.3077 66.7442
904 1 17.8068 26.3229 65.6861
847 1 14.0967 6.07135 63.9013
978 1 30.9394 26.5684 68.0376
915 1 9.10449 6.60328 70.0529
916 1 12.5751 8.18676 71.0302
918 1 18.5487 8.22961 70.5717
920 1 25.103 7.56589 69.241
992 1 31.9755 7.91988 71.8785
927 1 3.22646 10.1984 70.5529
929 1 8.78732 10.4649 70.0643
930 1 12.6214 12.8315 71.1926
932 1 18.7128 12.2671 70.4028
1003 1 22.6223 10.3991 72.0623
1005 1 27.8533 10.7783 70.175
1006 1 31.8597 12.7528 72.1047
941 1 2.60286 14.3559 70.6907
872 1 5.36553 17.3504 68.491
943 1 8.49242 15.1991 69.6769
1017 1 22.1949 14.6394 72.0775
1019 1 27.527 15.3892 70.5412
1020 1 31.4522 17.2904 72.2551
955 1 2.80115 19.2909 70.9747
957 1 9.09219 19.354 69.575
944 1 12.7125 16.9722 71.119
959 1 15.6091 19.7304 68.7379
946 1 18.7002 16.927 70.546
1031 1 22.6403 19.0628 72.5758
1033 1 28.0024 19.5627 70.7877
969 1 2.48949 23.7489 71.3967
971 1 8.85584 23.8814 69.9057
973 1 14.9387 24.3673 68.6035
958 1 12.3287 21.7144 71.3732
960 1 18.8938 21.7186 69.9612
1045 1 22.4057 23.9288 71.7395
962 1 24.7549 21.3601 69.7292
1047 1 27.9995 24.3908 70.9653
972 1 12.4555 26.4517 71.172
974 1 18.6694 26.6068 70.4572
983 1 3.46607 5.83047 75.9987
976 1 24.355 26.4231 68.9404
914 1 6.47709 8.3978 73.4477
986 1 13.4319 7.90945 75.6457
987 1 16.1867 5.775 73.5281
988 1 20.1106 8.44502 74.8897
990 1 26.2001 8.46532 73.2063
2457 1 16.2844 28.3552 77.6038
997 1 3.53891 10.2976 75.3368
928 1 6.76487 12.9529 72.3614
999 1 10.3486 10.8372 74.3153
1000 1 13.3636 12.7428 75.9263
1001 1 15.8194 10.2132 73.3179
1002 1 20.3467 12.9193 74.9151
1004 1 26.4695 12.7348 73.612
1075 1 29.7234 10.9243 74.7157
696 1 20.4412 26.2558 51.1491
1013 1 9.6745 15.1746 74.2443
1015 1 16.4317 14.996 73.1167
1089 1 29.1352 15.0716 75.9429
1091 1 33.9161 15.0775 75.5438
1025 1 3.61782 19.1411 75.4175
942 1 5.95784 17.4039 72.5884
1027 1 10.0906 19.6535 74.2292
1029 1 16.0437 19.3582 72.8254
1016 1 19.9586 16.9858 74.4689
1018 1 25.8269 17.3053 73.6851
956 1 6.39549 21.6738 72.4595
1041 1 9.90634 24.2708 74.6076
1028 1 13.1912 21.7327 75.6613
1043 1 16.0143 24.0092 73.1292
1030 1 19.6825 21.6983 74.6544
1032 1 25.9573 22.1452 73.9893
1117 1 29.6765 24.5458 74.632
1034 1 31.8538 22.0051 72.41
970 1 6.54661 26.1549 72.1313
1044 1 19.6037 26.3286 74.6768
1046 1 25.8038 26.7108 73.2804
1048 1 32.3841 26.4569 72.1218
982 1 1.12992 7.98456 78.4705
984 1 7.30468 8.23812 77.3008
648 1 5.93494 13.2532 51.3078
755 1 30.316 19.7669 51.9023
1060 1 27.2715 8.48496 77.7349
1097 1 10.6489 19.4647 78.9526
1062 1 32.0242 8.06717 77.9585
996 1 1.0889 12.4553 78.6199
998 1 7.60446 12.5159 76.7945
1069 1 11.0727 10.3625 78.9506
1071 1 17.7873 11.0035 77.2969
1055 1 10.9224 5.86394 78.994
1073 1 23.8038 10.6294 76.6693
1074 1 26.6404 13.0358 78.1674
1076 1 31.6976 12.7433 77.8235
1011 1 3.98026 14.5448 74.6729
1083 1 10.8416 15.2971 78.771
1085 1 17.3282 15.6816 77.7527
926 1 0.294926 12.5865 73.5252
1087 1 23.635 14.5685 76.3514
1088 1 26.9017 17.729 77.818
1090 1 31.5629 17.437 78.928
1010 1 0.824985 16.4443 77.8378
1012 1 6.86779 17.0671 76.8108
843 1 2.08112 6.31571 66.5743
1014 1 13.4099 17.0917 75.8531
1099 1 17.1783 19.6285 77.0198
1101 1 23.2719 19.4549 76.4414
1103 1 29.4946 19.6139 74.3459
1024 1 1.48445 21.3958 78.0646
1039 1 4.19164 23.9615 75.4178
1026 1 6.89814 21.6859 76.9224
1111 1 10.4854 24.2787 78.6643
1113 1 17.1085 23.6018 77.7084
1115 1 23.2059 24.164 76.2357
1102 1 26.6582 21.4068 77.7088
1104 1 31.5192 21.7133 77.9071
1038 1 1.08335 26.1338 77.7853
1040 1 7.35913 26.4703 77.4676
1042 1 12.8865 26.2243 75.8665
1116 1 27.0589 26.2081 77.9257
1118 1 31.334 26.9528 78.448
2103 1 2.35607 28.2705 54.1991
1114 1 20.3023 26.0596 78.6323
775 1 6.72038 5.87375 60.7475
2387 1 16.3179 28.2829 73.3565
1059 1 23.6675 5.79235 76.3749
758 1 0.275387 26.5623 57.1717
2113 1 30.0652 28.0909 51.8175
742 1 33.9296 17.1124 53.0427
1057 1 17.5517 6.64101 77.4165