ITEM: TIMESTEP
6000
ITEM: NUMBER OF ATOMS
16000
ITEM: BOX BOUNDS pp pp pp
1.1334666902755970e+00 1.0106653330972424e+02
7.1151496248053547e-01 1.0148848503752049e+02
5.7615687247175629e-01 1.0162384312752746e+02
ITEM: ATOMS id type x y z
2 1 3.95664 3.24579 2.77908
4 1 9.25066 3.50464 2.60957
6 1 14.3506 3.94355 2.56859
8 1 18.8088 3.3513 1.9344
10 1 24.8216 3.63758 1.92178
211 1 1.28089 1.11667 14.8874
12 1 29.4094 2.9283 2.80174
147 1 16.7802 1.37882 9.56203
24 1 24.1421 7.84448 2.85486
16 1 4.52099 7.98101 1.98927
18 1 8.5163 8.65964 1.9209
289 1 20.8655 1.13917 19.8591
20 1 14.4351 7.68745 2.83378
22 1 19.7841 7.8426 2.63807
145 1 11.8764 1.29989 10.3249
26 1 28.9561 8.36021 3.3228
28 1 33.5935 7.55712 3.52728
30 1 3.52145 12.7579 2.67169
32 1 8.68171 13.2425 2.58967
34 1 13.8867 12.9652 3.02034
36 1 19.2038 13.533 2.54342
38 1 23.7624 13.7813 2.56559
40 1 28.5442 13.2676 2.67493
42 1 33.6393 13.7435 2.54782
44 1 3.97097 18.4872 3.06952
215 1 11.7753 0.891334 15.6109
117 1 11.0847 16.0276 5.32214
50 1 18.8991 18.2072 1.47305
291 1 25.3558 0.78093 20.6783
281 1 1.56484 0.979305 20.4021
46 1 8.5651 18.2467 3.07673
48 1 14.4751 17.7398 2.8264
52 1 23.7107 18.2577 1.29259
54 1 28.7032 18.3256 2.75434
58 1 3.54675 23.1564 2.71878
60 1 9.76523 22.9935 3.3192
62 1 14.1554 23.096 3.3363
64 1 18.8006 23.0893 2.4823
66 1 24.4186 22.9296 2.20976
68 1 29.0194 22.9085 2.7617
70 1 33.6315 24.125 2.63046
71 1 1.61127 1.34267 5.62062
337 1 2.77573 20.7165 21.043
74 1 9.81693 3.08583 7.56478
76 1 13.9449 3.43586 7.10996
183 1 1.94135 15.3094 10.502
293 1 31.2144 1.07496 20.9181
85 1 1.72435 6.51669 5.62065
87 1 6.3139 5.79794 4.75025
89 1 11.2864 6.20302 4.43954
91 1 17.0408 5.70116 4.48485
93 1 22.1132 6.46744 5.64305
95 1 26.6555 5.26404 5.9967
97 1 31.4743 5.19077 5.8434
99 1 1.75278 10.3176 5.2671
101 1 6.37357 10.3646 4.96728
103 1 11.5728 10.2484 5.20854
105 1 16.9161 10.7953 4.84489
92 1 18.8218 8.06842 6.84487
107 1 21.8861 10.1457 4.66395
109 1 26.5367 11.0165 5.08551
111 1 31.1245 11.2948 4.83359
100 1 4.18448 13.1434 8.02678
102 1 9.33752 13.0892 6.76339
104 1 13.8258 13.5522 7.27071
106 1 19.2042 13.5825 7.90892
110 1 28.9225 13.0005 7.70686
113 1 2.34851 15.3965 4.94358
115 1 6.46482 15.7592 5.03906
116 1 8.98288 17.8236 7.80502
119 1 17.1589 15.9961 4.9807
121 1 21.2958 16.0612 4.73715
123 1 26.8979 15.698 5.34789
122 1 23.1274 18.3417 7.29301
125 1 31.3962 15.3974 5.553
219 1 21.5458 0.794992 15.7026
129 1 6.30181 20.5751 5.35338
131 1 12.0757 20.374 5.35359
118 1 14.4637 17.9087 7.51891
133 1 17.529 20.5469 5.36651
135 1 21.5978 20.7514 4.79399
137 1 25.7718 20.4122 4.89795
124 1 28.9871 17.2694 8.18001
139 1 31.6521 20.9893 5.0017
1475 1 11.9331 25.7073 5.12504
134 1 19.1258 23.6666 7.25986
1479 1 21.6989 25.0831 4.63973
136 1 23.4965 22.9517 7.73104
351 1 1.75697 0.765841 25.1599
138 1 29.4372 22.8807 7.38698
72 1 4.55928 3.63469 7.75039
159 1 11.9563 5.63718 10.4684
78 1 19.4182 2.94503 7.35228
80 1 23.6007 3.60895 8.3859
82 1 29.2017 2.90712 8.5853
14 1 34.0837 3.01892 2.57589
84 1 33.7983 2.60213 8.93317
155 1 1.40961 5.74331 10.2858
86 1 4.81772 8.45196 8.49602
157 1 7.26664 5.52375 10.6119
161 1 16.5682 5.23093 10.1783
163 1 20.6823 6.36569 10.2404
165 1 26.6257 6.36921 10.5224
167 1 31.2127 5.64745 10.7183
153 1 31.164 1.1609 11.2342
88 1 9.4559 7.8827 7.30268
173 1 12.0097 10.8482 9.5209
90 1 14.2997 8.17803 7.39426
94 1 24.2791 8.51998 8.2588
179 1 26.341 11.2785 9.88208
96 1 29.077 8.43925 7.93562
98 1 33.6001 8.13495 7.58268
181 1 31.8281 10.2555 10.8248
350 1 32.8052 22.7123 23.9261
171 1 7.45757 10.8338 10.6207
175 1 16.6534 10.4467 9.42145
177 1 21.4316 11.1211 10.1264
108 1 23.5776 12.999 7.245
112 1 33.6705 12.9854 8.10223
114 1 4.14417 18.228 7.96775
185 1 6.71354 14.9954 10.0829
187 1 11.4518 15.3453 9.97424
189 1 16.1756 15.4488 9.88579
191 1 21.225 14.8671 11.1113
193 1 25.7026 15.9068 9.95711
195 1 30.2573 14.5044 10.9646
33 1 11.7146 10.5305 0.569707
199 1 7.37182 20.8204 10.0618
201 1 12.1141 20.0543 9.88261
120 1 18.8808 18.0042 8.24266
205 1 20.2371 21.4336 10.7646
207 1 26.7204 20.5846 9.45659
126 1 33.4382 18.3712 7.11603
209 1 31.1782 20.2601 9.6945
128 1 4.07172 23.5281 8.38895
130 1 9.73195 23.6785 7.88164
1543 1 6.74049 25.4174 10.8061
132 1 14.4582 23.476 7.79338
348 1 27.8082 23.3159 23.2527
140 1 34.1173 22.8499 7.2728
142 1 4.45117 3.70843 12.8289
144 1 9.05853 3.06101 13.2289
146 1 15.1304 2.98683 12.766
148 1 18.8144 2.83694 12.8786
150 1 23.6355 3.84124 12.7298
152 1 28.8976 3.81765 13.8217
154 1 33.6228 3.29746 13.8553
225 1 2.01335 6.30331 14.1424
227 1 6.77421 6.47769 15.1517
229 1 12.7709 5.36406 14.9087
231 1 16.8629 5.927 14.8876
156 1 4.50421 8.51669 12.2921
158 1 10.2659 8.25128 13.0501
160 1 14.0148 8.61234 12.3711
162 1 19.016 9.06437 12.5196
164 1 23.9054 8.41504 13.0267
166 1 29.8745 8.53257 13.9492
1621 1 26.6359 25.0159 15.1316
170 1 4.17223 13.2547 12.7506
172 1 9.30338 13.3572 13.6536
174 1 14.536 13.3184 13.0635
176 1 18.3342 12.734 13.089
178 1 24.0187 12.3712 13.8058
180 1 28.597 12.2106 13.736
182 1 33.6824 12.6552 13.2437
184 1 4.61438 18.4424 12.6573
186 1 9.19462 18.0598 12.2404
188 1 14.0792 18.1681 12.5273
190 1 19.596 18.3757 13.4853
261 1 21.7019 15.7175 14.8882
263 1 25.8482 16.1999 15.0452
271 1 12.0761 21.4753 15.429
203 1 16.4575 20.1863 10.3743
192 1 23.8994 18.3977 12.5037
194 1 28.6508 18.0757 12.7609
196 1 33.1687 18.5974 13.4452
198 1 3.7979 23.1572 12.3049
200 1 10.3703 22.9304 12.0662
202 1 14.1726 23.7899 11.8461
204 1 18.3475 23.5868 13.5702
206 1 24.0757 23.2784 12.1887
208 1 28.8764 23.1453 12.2699
210 1 34.1158 22.9928 12.4462
212 1 5.04429 2.98282 17.9768
214 1 9.67637 3.69375 17.8902
216 1 14.6435 3.0915 18.5419
218 1 18.9072 3.80514 17.6429
346 1 23.7003 23.9087 23.9106
220 1 23.4157 3.74527 17.1738
221 1 26.1996 1.34816 15.1921
222 1 27.9706 2.8279 18.2574
224 1 33.9201 2.53158 18.3715
232 1 18.8548 8.20544 18.4274
233 1 20.6763 6.5562 15.0754
235 1 26.2194 6.12306 15.7212
237 1 30.6424 5.7554 16.7085
239 1 1.86432 10.3538 14.7981
226 1 4.06475 8.96846 18.0446
241 1 6.90426 10.9284 15.1476
228 1 10.1257 8.29001 17.6064
243 1 12.1452 11.1043 15.2299
230 1 14.7698 7.91329 18.3413
245 1 16.2946 10.8469 15.7131
247 1 21.1282 10.721 16.0878
249 1 26.3693 10.5426 16.3497
251 1 31.3767 10.5038 16.777
240 1 4.41245 12.9806 17.5208
242 1 8.99629 13.7168 18.1411
244 1 13.6739 13.9144 18.147
246 1 19.5197 13.3819 18.3176
248 1 23.8033 13.6912 18.1098
250 1 28.0671 13.4007 18.0771
252 1 33.4681 13.0334 19.1863
253 1 1.76598 16.0381 15.2446
254 1 4.08577 18.3233 17.4789
255 1 6.61563 15.7121 14.7728
257 1 12.3979 15.7801 14.9589
259 1 16.6943 15.7842 15.4586
260 1 19.5553 18.529 17.5108
265 1 31.2582 15.0893 15.3926
267 1 1.38851 20.5322 14.7783
269 1 7.60341 20.2556 14.8087
258 1 13.6576 17.8954 18.059
273 1 16.1166 20.7807 14.9421
275 1 22.0591 21.7504 15.3775
277 1 26.9124 20.7726 14.9097
264 1 28.7582 17.8689 18.255
266 1 32.6747 17.8695 18.7679
279 1 30.6671 21.0115 15.8304
268 1 4.22901 22.8435 17.1019
1613 1 6.50206 25.5449 15.0713
1687 1 16.4396 25.7865 21.1333
272 1 14.0445 23.0679 18.5596
274 1 19.3035 23.174 17.5695
415 1 21.318 20.682 25.7526
276 1 23.7112 23.9985 18.7635
278 1 28.0352 23.4881 18.6934
1471 1 1.43493 25.6365 5.25428
1481 1 26.4099 25.8326 5.36811
283 1 6.8542 1.44939 20.7526
285 1 12.1845 1.36726 21.0663
295 1 3.03699 5.18097 20.4011
297 1 7.06611 5.90086 21.0717
299 1 11.8026 5.87996 20.4373
301 1 16.9478 5.29301 21.5615
303 1 21.7426 5.40665 21.2604
305 1 26.3496 4.92993 20.9451
307 1 31.1401 5.21084 21.1448
296 1 4.19405 8.76316 22.93
311 1 7.29889 10.7082 19.8849
313 1 11.9354 11.1741 19.9377
315 1 16.5049 11.3793 21.1107
234 1 23.4621 7.78632 18.6366
317 1 21.2353 10.5247 21.43
319 1 25.9037 11.1435 21.0422
236 1 28.8172 7.98694 19.0187
238 1 33.3746 8.42351 19.2507
321 1 30.5751 11.3546 21.3015
309 1 1.74423 11.0469 20.7098
323 1 2.46751 15.1954 20.6158
325 1 6.75217 16.5056 20.7688
327 1 10.5915 16.2795 20.4932
329 1 17.2355 15.9424 20.105
331 1 21.9983 16.0275 20.5423
262 1 24.1691 18.7028 18.313
333 1 25.9847 16.016 20.6562
335 1 29.9991 15.977 21.55
339 1 7.57969 20.7533 21.2649
256 1 9.34955 18.5854 17.4703
341 1 11.3983 21.0969 20.1697
343 1 16.3371 20.4755 19.9676
345 1 21.9088 21.6772 21.0934
347 1 26.4762 20.6587 20.6816
349 1 30.1487 20.7582 21.6581
1681 1 1.57709 24.9608 20.7454
270 1 8.1724 22.947 17.5953
344 1 18.7167 22.777 23.8179
1551 1 26.7393 25.3282 9.60748
56 1 34.2318 18.4176 2.47381
280 1 32.2467 23.0313 19.4254
1685 1 11.0949 25.0827 20.5733
282 1 4.23398 3.08879 23.1714
284 1 9.51378 3.67823 23.984
286 1 14.0598 2.7922 24.1881
288 1 19.6205 2.73393 23.4698
290 1 23.5154 3.43116 24.0029
292 1 28.2863 3.26652 23.8621
294 1 33.1152 2.9472 24.7301
365 1 2.07608 5.57583 25.1098
393 1 1.38581 15.9469 24.6978
169 1 1.14249 10.5899 10.1813
1619 1 21.4871 25.6866 15.2417
298 1 9.98987 8.41642 23.1152
1553 1 31.8328 25.8209 9.9547
300 1 14.1596 8.42843 22.899
302 1 19.1851 8.14883 23.4075
385 1 16.4947 11.7652 25.0935
143 1 6.82057 1.47589 10.5552
304 1 23.7293 8.04335 23.396
1617 1 16.0069 25.6797 15.7057
306 1 28.3064 8.10034 23.8179
308 1 32.9701 8.48657 23.3645
310 1 4.47516 13.4227 23.6262
312 1 9.3494 13.2778 23.316
314 1 14.4257 14.6932 23.0402
316 1 18.9917 13.9378 22.9907
318 1 23.1282 13.6368 23.9783
320 1 27.8275 13.6763 24.2909
322 1 32.7107 13.7021 23.4098
324 1 4.71492 18.2434 23.388
395 1 7.01154 15.5665 25.5989
151 1 26.6672 0.796186 10.5357
328 1 14.1787 18.5231 22.6667
73 1 6.21822 1.07314 5.13167
330 1 19.0612 18.5727 23.2003
332 1 23.8077 18.1658 23.2116
334 1 27.4188 18.2272 24.6631
336 1 33.3702 18.3282 24.0425
326 1 9.67772 17.8861 24.0387
338 1 4.3846 23.041 23.7342
340 1 10.2412 22.7124 23.4741
213 1 6.95653 0.974788 15.7494
342 1 14.1598 23.2239 23.2047
47 1 11.8369 16.0254 0.740589
1473 1 6.45386 24.9494 4.64701
81 1 26.8643 1.00806 6.0762
1751 1 1.30749 25.6362 25.3032
27 1 30.936 6.10017 0.989749
127 1 1.21623 21.1108 5.52663
1689 1 20.7619 25.7361 20.685
168 1 33.8642 8.06056 14.3849
1683 1 6.55284 25.7331 20.9912
1615 1 11.2796 25.7682 15.8613
1549 1 21.566 25.8073 10.4367
1623 1 30.5248 25.7261 15.8107
409 1 7.18131 20.9569 25.499
1477 1 16.6062 25.7393 4.59814
381 1 7.12757 10.7871 25.5861
367 1 6.80109 6.17807 25.7818
387 1 21.0365 10.7199 25.4305
1757 1 16.3159 25.4716 25.7647
59 1 6.25356 20.115 0.749037
352 1 4.73398 2.9133 27.8172
565 1 11.0371 0.992514 42.2857
354 1 9.33927 3.02951 28.4888
356 1 13.7631 2.16511 28.603
358 1 18.6728 2.2605 27.9601
360 1 23.3922 2.66035 28.1239
362 1 27.99 2.82929 28.5242
364 1 32.2668 2.54385 28.6189
561 1 1.22381 1.27983 40.931
2037 1 16.0752 25.5013 47.1704
375 1 25.5541 5.81779 26.4352
519 1 1.18423 10.592 36.0306
366 1 3.87828 9.25863 27.292
503 1 29.7542 0.921166 36.1233
368 1 9.672 8.61873 28.875
370 1 14.6323 9.40819 27.8925
372 1 18.8335 8.24132 28.8461
374 1 22.6208 8.33725 29.2058
491 1 1.43373 0.844894 36.8145
376 1 27.8748 9.10811 29.0253
378 1 32.2169 8.94377 29.7066
380 1 4.04096 13.4921 27.7215
382 1 9.33838 13.3409 28.8017
384 1 13.9614 13.4825 28.5893
386 1 18.0183 12.6373 28.6669
388 1 23.2939 13.1865 28.643
390 1 28.0663 12.8542 28.8604
392 1 32.6204 13.4134 30.0731
394 1 4.5269 18.1762 28.2164
396 1 9.5343 18.2172 28.6255
398 1 14.3154 18.309 29.3442
401 1 20.6449 16.1326 26.8826
402 1 23.1374 19.5138 29.0868
403 1 24.7887 16.3937 27.464
405 1 31.0291 15.3723 26.1849
603 1 1.64633 15.4276 40.4611
686 1 34.1855 17.7824 48.2058
411 1 12.2808 20.2701 26.2931
644 1 33.7175 3.0845 47.7652
400 1 19.0542 18.7913 29.3923
690 1 7.95221 23.0989 48.9096
417 1 25.8863 20.755 26.6515
419 1 30.694 20.2195 26.3345
408 1 4.16871 22.8975 28.1065
575 1 1.65145 6.08628 40.9913
410 1 9.19552 23.2086 27.8676
412 1 13.8888 23.4992 28.8868
414 1 18.5409 22.7266 28.5426
688 1 3.25179 23.0717 48.3884
416 1 23.3019 23.4712 28.4672
418 1 28.3277 23.11 28.9393
1825 1 11.4226 25.8709 30.6443
420 1 32.3784 24.0911 28.602
421 1 1.65736 1.62953 31.1944
1821 1 1.2509 24.9871 31.3193
424 1 9.4398 3.78057 33.1146
426 1 13.8552 3.01372 33.4944
533 1 1.95546 15.6132 34.6371
399 1 16.5981 16.2528 26.1515
435 1 2.84292 5.54176 29.9347
437 1 7.17846 5.89395 30.5539
439 1 11.9708 6.15169 30.5499
440 1 13.8124 7.80256 33.5385
441 1 16.5507 4.61125 30.5389
443 1 21.0066 4.50205 30.9334
445 1 25.4019 6.12475 30.626
447 1 29.1678 5.2519 31.0883
449 1 1.77362 10.1996 30.5573
451 1 6.5035 10.4024 30.3399
453 1 12.2725 10.9303 31.1751
438 1 9.10355 8.3877 33.2695
455 1 16.1516 11.1509 31.3341
457 1 20.7869 11.057 31.9306
459 1 25.4034 10.6153 32.0255
461 1 30.4776 11.2443 32.4669
463 1 1.58816 14.845 30.8183
465 1 6.93099 15.1541 30.9793
467 1 11.4925 15.5709 31.7121
473 1 25.7239 15.3483 32.0292
469 1 16.2209 15.6814 31.6139
471 1 21.2257 15.0032 31.2592
404 1 28.2047 18.385 28.9943
475 1 29.9399 15.7656 32.1207
406 1 32.6827 17.7581 30.0777
477 1 1.46617 20.4005 31.0921
479 1 7.26392 21.0679 30.1115
481 1 11.5791 21.1434 31.4392
483 1 16.2694 21.262 32.3501
485 1 21.0828 21.769 32.0725
487 1 25.5719 21.5094 31.3534
489 1 30.258 21.3589 31.9844
1965 1 10.974 25.385 41.6012
589 1 1.45423 11.6307 40.4278
769 1 31.6386 21.1761 50.2194
1961 1 1.59548 24.8924 41.0096
422 1 3.78591 3.46566 33.7927
493 1 6.37308 1.31945 36.0967
495 1 11.0694 1.91126 35.9986
428 1 18.0815 2.65596 34.2831
430 1 22.0656 2.50955 34.1759
696 1 23.205 24.003 49.5559
432 1 26.7297 3.56652 34.2755
434 1 31.9472 3.35658 32.9924
505 1 1.66782 6.64112 36.3902
507 1 6.48385 6.0702 36.4858
509 1 11.5708 6.05405 36.2462
511 1 15.4219 5.82311 36.6803
444 1 23.0489 7.19807 33.8286
513 1 19.9092 5.45161 36.6354
515 1 25.0785 5.47278 37.6267
446 1 27.7343 7.70789 34.4448
448 1 31.7527 7.84423 33.9458
436 1 4.4007 7.94798 33.67
659 1 1.56091 11.015 47.2729
521 1 7.04225 10.5713 36.0022
523 1 11.6095 10.8779 36.281
442 1 18.4351 7.79437 33.4977
525 1 15.9462 10.0702 36.2172
531 1 30.0724 9.88334 37.0049
450 1 5.04815 12.4667 33.2033
700 1 34.2698 23.3978 47.2013
452 1 9.51272 12.993 32.8458
454 1 13.9131 13.8169 34.527
456 1 18.6871 13.2761 34.6973
458 1 23.0186 13.5331 35.2623
460 1 27.3791 12.3284 34.9366
462 1 33.3492 13.8179 34.716
464 1 4.68782 17.9428 32.9494
535 1 7.23613 15.8001 36.2247
466 1 9.22953 18.4006 33.0566
468 1 13.6914 17.6667 33.9589
470 1 18.4306 17.8711 33.7847
472 1 23.192 17.8417 33.9506
476 1 32.9644 18.5497 34.3642
547 1 2.07576 20.3383 35.152
549 1 6.58806 20.4284 35.5523
551 1 11.4078 20.5134 35.7164
553 1 15.9761 20.897 36.4707
555 1 20.7375 20.6915 36.4784
557 1 25.1818 21.2829 36.2628
474 1 27.6476 18.7861 34.2622
559 1 30.8861 21.1362 36.6016
478 1 4.36188 23.5608 32.8503
480 1 9.1633 23.7957 33.2776
482 1 13.8482 24.0918 34.1281
484 1 18.8709 24.2077 34.9689
486 1 23.0824 25.0179 34.1478
488 1 27.4231 23.8232 34.7754
490 1 33.7301 23.8781 33.9922
492 1 4.57861 3.51301 38.3495
494 1 8.94813 3.32005 39.3495
496 1 12.8773 3.68102 39.0929
498 1 18.3013 4.1357 39.9714
500 1 21.9959 3.02705 40.2137
502 1 27.548 2.88595 38.9837
504 1 32.955 2.39806 39.5118
512 1 17.9735 8.28764 39.8775
517 1 30.115 4.98758 37.3036
518 1 33.3021 7.03138 39.1307
506 1 4.46731 8.5518 38.432
508 1 9.5238 8.30058 39.564
510 1 13.478 8.4319 39.846
527 1 20.6516 9.90793 36.58
529 1 24.8574 9.40516 36.8162
516 1 27.619 7.99323 39.1021
520 1 4.85615 13.423 37.7267
522 1 9.23725 12.8566 39.3619
524 1 13.2809 12.6608 39.0422
526 1 18.0479 12.9877 39.3973
528 1 23.2281 12.9765 39.198
545 1 30.1665 15.5311 36.7659
530 1 27.8476 12.7196 38.4512
532 1 33.594 13.63 39.2327
534 1 3.99454 17.5345 38.0191
537 1 11.4697 16.023 36.4171
536 1 9.18096 18.7167 39.2917
539 1 16.047 16.2235 37.3863
541 1 20.6938 16.4264 37.326
542 1 22.8478 18.9578 39.4512
543 1 25.4177 16.2009 36.7482
544 1 27.5179 18.7152 39.0019
546 1 32.8721 17.8276 38.9097
538 1 13.1398 18.7091 39.7747
540 1 18.0789 19.136 39.3518
548 1 4.03141 23.435 37.701
550 1 8.56136 23.109 38.696
552 1 12.7146 22.4132 39.1399
554 1 18.5044 23.2618 39.7504
556 1 23.2001 23.6376 39.2281
558 1 27.9296 23.7569 39.3098
560 1 32.7983 23.7061 38.4635
407 1 1.71903 20.287 26.3527
563 1 6.04926 1.15944 40.7967
577 1 6.05332 6.25243 40.9428
579 1 11.1367 5.7183 42.5784
581 1 15.7995 5.69247 42.9077
514 1 22.4455 7.87178 40.0806
583 1 20.0323 6.34662 42.8151
585 1 25.6267 5.17045 42.4508
587 1 30.0786 5.52727 41.879
576 1 3.23636 8.71448 43.6927
373 1 20.9214 6.0662 26.6037
591 1 6.22192 11.0431 40.828
593 1 10.5578 11.4197 43.5166
595 1 15.8861 11.0049 41.7928
597 1 20.2902 11.1176 42.7435
599 1 25.7321 10.9578 41.1108
601 1 30.8035 10.5138 41.3624
391 1 29.8592 10.8578 26.0533
590 1 3.99098 13.4836 44.023
600 1 27.8436 12.3172 43.6867
602 1 33.487 13.259 43.9281
604 1 3.78168 18.1032 43.5745
605 1 6.50962 15.5856 40.7971
607 1 11.6381 15.6801 42.0513
609 1 15.4983 15.8525 41.5198
610 1 18.9712 18.0823 43.7351
611 1 21.0962 15.3592 41.7859
612 1 23.1861 18.0218 44.5422
613 1 25.789 15.6186 41.3224
615 1 30.2498 15.7426 41.4592
614 1 27.7719 18.3765 44.2607
616 1 33.5247 17.7399 43.5255
617 1 1.73623 20.6483 40.1764
619 1 5.64506 20.0943 40.6733
621 1 10.1218 20.9179 42.4394
608 1 14.0186 19.0226 44.3839
623 1 15.9269 21.2602 41.9639
625 1 21.3669 21.4434 41.9041
627 1 25.5472 21.5265 42.306
629 1 30.5943 20.2331 41.0079
618 1 3.21595 22.8258 43.8712
694 1 19.1515 23.4498 48.3709
698 1 28.9461 23.4215 48.4688
1963 1 6.20633 25.6033 41.5899
682 1 23.6231 17.7165 49.2826
497 1 16.2716 0.807474 37.4765
630 1 33.4813 23.3059 43.1566
562 1 3.75227 3.98416 43.7541
564 1 8.30054 3.49338 44.0801
633 1 5.00136 1.49808 46.9783
566 1 13.7553 3.36746 45.5979
568 1 18.0663 3.0842 45.6216
570 1 22.7327 2.94302 44.669
572 1 27.7813 2.53545 44.8562
574 1 33.6827 3.33126 43.5916
680 1 18.396 19.0857 50.002
647 1 5.99086 5.92151 46.0751
649 1 10.565 6.56938 46.8735
580 1 13.7698 8.70662 44.4836
584 1 23.2898 8.96 44.1399
655 1 25.1481 6.72047 46.2942
657 1 30.4806 4.80639 46.2331
588 1 33.6388 7.58008 43.8303
661 1 6.10467 10.5509 46.9692
578 1 7.84751 8.55329 43.9766
582 1 18.1171 9.62124 45.6636
667 1 21.4882 10.6049 47.2734
669 1 26.1433 11.1194 46.8457
586 1 28.1522 7.94866 43.8145
671 1 30.9812 10.7666 45.8178
592 1 8.39069 14.1698 44.8028
594 1 13.7977 13.2082 45.0579
596 1 18.1999 14.1238 44.1394
598 1 23.1132 13.3207 44.0654
685 1 30.719 15.0388 46.0204
606 1 8.26589 17.9051 44.2619
675 1 4.87036 15.8053 46.6745
677 1 11.9825 16.3244 46.4411
679 1 16.0765 16.4797 47.0512
681 1 20.8355 15.6508 46.2987
683 1 26.354 15.6156 46.8764
689 1 4.90432 20.2758 46.5829
691 1 10.783 20.6926 47.186
693 1 16.6763 21.1292 46.5339
695 1 21.2342 20.3739 47.3298
697 1 25.9686 21.2045 46.7865
699 1 31.1064 20.2002 45.6782
620 1 7.30345 22.6925 44.2736
2035 1 10.6479 25.463 47.1424
622 1 12.8382 23.5318 44.2762
624 1 19.0602 23.6199 44.5797
684 1 29.2718 18.6497 48.7232
1967 1 16.249 25.677 41.9612
626 1 22.8265 24.1011 45.0086
628 1 28.7606 23.6985 43.639
672 1 34.2201 12.7901 48.5172
632 1 2.66838 4.30405 48.6521
634 1 7.99786 3.34515 48.7908
636 1 11.9161 3.53597 50.0607
638 1 17.9772 3.25167 49.6082
692 1 13.4451 23.2974 49.4406
640 1 23.9145 3.3931 49.116
642 1 27.9947 2.63704 48.6979
755 1 31.4408 16.115 50.6515
648 1 7.81326 7.30366 49.6375
651 1 16.07 6.93825 47.5684
653 1 20.4064 6.6545 46.9525
567 1 15.4179 1.77742 41.7504
727 1 30.8755 4.84292 50.8449
646 1 3.27664 8.17498 49.5105
663 1 10.9116 11.0387 47.4246
665 1 15.6102 10.8765 47.8479
650 1 12.4385 8.29201 49.7959
652 1 18.4753 8.12013 50.1316
654 1 24.0929 8.26206 49.6589
678 1 13.7404 18.5672 49.3761
656 1 28.8078 8.21307 48.4052
658 1 33.4718 7.58918 48.5913
660 1 3.57898 13.6494 49.872
662 1 8.16711 13.1963 48.9669
664 1 12.6733 13.998 49.5299
666 1 18.7522 13.2566 48.6644
668 1 23.5921 13.5856 48.6451
670 1 28.926 12.745 49.458
377 1 30.2295 6.14581 26.4993
741 1 31.6823 10.4722 50.5886
674 1 2.7592 18.2851 50.0618
676 1 8.05189 17.8629 48.859
389 1 25.4224 10.2564 26.5174
413 1 16.3357 20.8803 26.0795
371 1 16.1913 5.91871 26.2598
1897 1 16.0685 25.5562 37.2091
1827 1 16.1425 25.8675 31.5058
2041 1 26.6144 25.7317 46.6912
397 1 12.2679 15.8022 26.1244
383 1 11.8617 11.149 25.963
369 1 11.4242 6.42912 26.1176
702 1 2.55079 3.38461 55.3442
704 1 7.04072 3.02841 54.7604
708 1 17.6075 2.69194 54.2618
733 1 11.0216 11.4143 52.0418
710 1 24.6151 3.28647 53.8562
712 1 28.8944 2.25848 54.1375
714 1 33.3808 3.19543 54.2477
1050 1 34.4053 23.5738 73.7841
717 1 5.23444 5.44488 52.2468
719 1 9.73923 5.53097 52.6816
721 1 15.5287 6.43617 52.1652
723 1 21.079 4.55711 51.9376
728 1 33.7866 7.80312 53.402
716 1 3.83401 8.54049 54.6586
1037 1 1.38606 21.0913 72.0499
720 1 12.5449 8.78579 54.5603
735 1 15.1684 10.359 52.0731
737 1 21.5394 11.0328 51.9475
724 1 23.1065 7.98255 53.5985
726 1 28.9968 8.39031 53.6348
730 1 3.52877 13.2356 54.0825
991 1 27.0438 0.800051 70.8176
734 1 14.0282 14.4187 54.088
751 1 20.5974 15.3026 51.8413
738 1 24.135 13.8877 54.3667
740 1 29.2377 12.5724 54.0216
1048 1 30.0686 23.7248 73.7294
744 1 3.04736 19.0105 54.494
745 1 5.88176 16.3489 51.8889
747 1 10.454 16.2873 51.8476
749 1 16.5672 16.5388 53.0597
752 1 23.8587 17.8092 53.9673
754 1 29.4516 19.0625 53.1651
753 1 26.9295 15.6141 51.3634
756 1 33.9442 18.7324 53.4974
2109 1 21.0803 25.6122 52.011
759 1 5.94167 20.9297 51.6374
967 1 1.16446 21.1988 67.3659
748 1 12.9833 18.6269 54.96
750 1 19.4742 18.5625 54.9535
763 1 15.0239 21.0849 52.1793
913 1 5.71815 0.92897 66.8931
731 1 6.48187 10.7612 51.5454
758 1 3.43282 23.4381 54.8515
762 1 12.5736 23.3939 54.2149
764 1 18.1557 23.2198 54.5412
1077 1 31.289 6.47359 75.5285
766 1 24.3085 24.006 54.5505
768 1 29.3084 23.711 53.3499
773 1 4.397 0.886159 57.9064
706 1 13.3416 2.71256 53.866
779 1 21.5343 0.867413 56.4986
787 1 5.42595 6.41093 57.3305
789 1 11.023 4.88703 56.5157
791 1 15.0768 5.47177 56.571
793 1 20.7164 5.49325 56.3087
795 1 26.5679 5.63863 56.2935
797 1 31.0925 5.51889 56.6231
757 1 1.42995 21.478 51.5184
801 1 5.39769 11.2655 57.5339
718 1 8.44796 8.65619 55.0399
803 1 11.1497 11.305 57.1043
805 1 15.5874 10.0349 56.6323
722 1 18.4187 8.18763 54.0976
807 1 21.9314 10.1738 56.465
809 1 26.3273 10.1263 55.8562
811 1 31.8319 10.1599 56.8112
732 1 8.04228 13.3149 54.5605
736 1 18.544 12.9518 54.9431
821 1 20.8376 15.3165 56.5594
823 1 27.4373 15.9326 56.1307
815 1 5.53824 15.9911 56.4436
817 1 10.4229 15.9779 56.6413
819 1 16.3168 15.7544 56.99
825 1 31.4136 15.5938 55.2383
746 1 8.34388 19.1312 55.0086
829 1 5.77195 20.771 57.5281
831 1 11.054 21.0375 57.0795
833 1 15.6891 20.879 56.4168
835 1 22.0987 21.5297 56.269
837 1 26.7104 20.6287 56.392
839 1 31.4896 21.2416 55.9517
939 1 1.1845 11.289 67.0849
760 1 8.17142 23.5399 54.5011
919 1 21.3868 0.983431 66.4336
838 1 28.6681 24.5142 57.906
772 1 2.94589 4.11347 59.9993
774 1 7.53081 3.16234 59.3236
843 1 5.68886 1.13095 62.32
845 1 10.3704 1.0207 62.2254
776 1 13.2226 2.47281 59.7851
778 1 18.3203 3.62924 58.8246
849 1 21.1282 1.27908 61.2097
780 1 24.5819 2.86628 58.5055
2103 1 5.5455 25.4043 51.1594
782 1 29.3689 2.88624 58.9262
1046 1 24.767 23.5305 73.1341
859 1 11.3035 5.45322 61.2799
861 1 15.79 6.34435 60.9854
792 1 18.5761 8.19483 58.4711
863 1 21.2041 5.28461 61.1029
796 1 28.8483 8.07929 58.3783
867 1 31.8044 5.12542 60.8626
995 1 1.36718 6.68173 72.7259
786 1 2.31721 8.72846 59.9358
788 1 8.88709 8.98435 59.7086
871 1 6.49538 11.304 62.0313
873 1 10.8069 11.4737 61.6604
790 1 13.1593 8.39975 59.0975
875 1 16.292 10.6693 61.3988
877 1 21.6306 9.7564 61.4933
794 1 24.3428 7.67252 58.2304
879 1 26.1481 10.1556 60.7353
881 1 32.3178 8.98204 61.1399
800 1 2.66355 13.3061 60.2726
802 1 8.48402 13.6865 59.0213
804 1 13.677 13.5614 58.6897
806 1 19.9818 12.583 59.1826
808 1 24.5247 12.8785 58.227
810 1 28.987 12.8899 58.1537
812 1 33.5804 13.1357 58.7716
814 1 2.72807 17.8618 59.5895
816 1 8.12504 18.3193 59.6065
885 1 6.06553 15.6381 61.9993
887 1 10.9495 15.9945 61.4796
889 1 17.0851 15.0766 61.7377
891 1 21.4512 16.3503 61.1114
822 1 24.2981 17.522 58.8739
824 1 29.6355 18.2605 58.4309
742 1 33.2535 12.4181 53.8112
895 1 31.6727 15.6486 60.8168
899 1 5.7772 20.4063 62.2067
818 1 13.8167 18.196 59.127
903 1 16.3015 21.8338 61.0662
820 1 18.707 19.0891 58.4949
905 1 22.2104 20.6573 60.6165
907 1 26.7371 20.9978 60.5944
909 1 32.2308 21.1685 59.8623
828 1 3.09076 23.5076 60.2047
1085 1 16.0598 10.9556 76.3182
830 1 8.67505 23.0092 59.6424
1113 1 17.3291 20.3401 75.952
832 1 13.3218 23.9958 58.69
834 1 19.1524 23.7756 59.1029
836 1 24.5557 24.2762 58.6309
842 1 3.42437 4.45053 64.8523
844 1 8.63043 4.07109 64.8801
846 1 14.016 3.07274 64.1917
848 1 17.8127 3.72249 63.2902
850 1 24.1366 3.17558 63.6782
852 1 28.7016 2.31581 63.1292
1109 1 6.84037 21.5398 76.2835
857 1 6.07474 6.6456 62.0184
862 1 18.712 8.23171 63.4556
865 1 25.8281 5.30967 60.9195
856 1 3.03604 9.10021 64.4643
858 1 9.06681 7.93109 64.1377
860 1 13.906 8.28116 63.7618
945 1 15.9215 11.2736 66.3566
864 1 24.1849 7.82005 63.7823
866 1 28.3688 8.31177 63.5061
870 1 3.4713 13.3845 65.0854
872 1 8.43651 14.0918 64.7116
943 1 11.2927 11.1791 66.4303
874 1 13.636 13.0819 64.0494
876 1 19.4947 12.8712 63.8988
878 1 24.1492 13.4928 62.8196
880 1 29.1529 11.9469 62.6053
882 1 33.7532 12.728 63.3488
884 1 3.02521 18.3868 64.3065
886 1 9.32872 18.6835 64.1155
888 1 14.3919 17.386 63.6502
892 1 24.7212 18.0212 63.3574
893 1 27.6804 15.9592 61.6169
965 1 30.7331 15.4934 65.3685
969 1 5.72048 20.7621 66.3308
901 1 11.782 20.7295 61.5383
890 1 18.7189 18.9987 63.3386
894 1 29.3742 19.2705 62.9868
896 1 33.8257 18.9485 63.61
898 1 3.23405 23.2946 64.6485
900 1 9.06689 22.6645 63.4522
902 1 13.4847 24.4653 63.5959
904 1 19.4855 23.2785 63.5299
906 1 24.0577 23.8527 63.1444
908 1 29.5118 23.6638 62.6719
983 1 6.33899 1.28673 71.1889
914 1 8.37544 3.87274 69.1271
1022 1 34.1866 13.6896 73.4133
916 1 13.6753 2.65616 68.6067
1040 1 9.88032 23.4581 73.1216
921 1 26.1169 0.909657 66.2874
923 1 31.8295 1.58464 66.5244
952 1 33.944 14.2616 68.16
927 1 6.17984 6.97729 66.9532
929 1 11.7298 5.86597 65.8857
931 1 16.1686 5.18784 66.7923
933 1 20.9239 5.70028 66.0357
935 1 26.6074 5.01227 66.4464
937 1 31.4041 6.08926 66.1274
926 1 3.52818 9.1976 69.2909
941 1 6.56512 10.9749 67.1226
928 1 9.43224 8.33201 68.8534
930 1 14.7685 8.63263 68.8545
932 1 18.9192 8.67165 68.127
947 1 21.8369 10.7312 66.0377
949 1 26.1147 11.7912 65.5402
951 1 31.5726 10.9117 66.0064
942 1 8.30649 13.7496 69.2727
944 1 14.5484 13.8313 68.9646
946 1 19.338 13.5571 68.2915
948 1 23.7591 13.3868 68.3603
950 1 29.4697 13.5263 68.3102
765 1 22.2759 20.8998 51.9308
955 1 5.40905 16.4047 66.7251
957 1 11.531 16.2582 66.3363
958 1 13.9601 18.7539 68.2094
959 1 16.9917 15.837 66.3295
961 1 21.3197 15.7217 65.6442
963 1 26.6254 15.417 66.1879
971 1 11.8357 20.9818 65.8425
956 1 9.32587 18.3258 68.5104
960 1 18.8123 19.2017 68.425
973 1 16.4772 21.4583 65.1066
975 1 21.9305 20.2725 65.0752
962 1 24.8403 19.1541 68.368
977 1 26.5117 20.883 65.1501
964 1 29.59 18.6466 67.8343
979 1 31.5213 21.4644 65.964
968 1 3.76839 23.3106 69.2218
2313 1 6.20309 25.6543 65.9689
970 1 8.83392 23.4161 68.6027
972 1 14.555 23.9095 67.8236
974 1 19.256 23.8859 68.1951
976 1 24.5628 23.1485 67.554
978 1 29.0901 23.4763 67.9382
826 1 34.2513 18.1592 58.2355
912 1 3.52133 4.10934 69.3251
986 1 13.5479 2.77185 73.8617
918 1 18.9926 2.91213 68.5593
920 1 23.6455 3.64984 69.252
922 1 30.0189 3.80982 69.1116
993 1 32.422 1.64746 71.2142
997 1 6.15552 6.14052 71.5049
999 1 11.6776 5.69744 70.7359
1001 1 16.4779 5.25037 71.229
1003 1 21.2285 6.6327 70.6617
934 1 24.3474 8.91707 68.2603
1005 1 26.6809 5.50931 70.6736
1007 1 32.2055 6.18028 71.4948
1011 1 6.89509 11.3055 71.7525
1013 1 11.484 11.6838 70.4055
1015 1 16.1506 10.9195 71.0364
1017 1 21.8519 10.9005 71.0459
936 1 28.9441 8.80009 68.1392
1021 1 32.3667 10.6791 70.666
940 1 3.81353 13.8953 69.5196
1014 1 13.5098 13.8728 73.5765
1019 1 26.2992 11.4717 70.6262
954 1 3.40938 18.7395 69.6193
1025 1 6.74936 16.7072 72.2915
1027 1 11.3418 16.4928 71.0018
1029 1 17.0913 16.8229 70.9539
1031 1 21.6888 17.0917 70.3227
1033 1 27.2539 16.9293 70.7321
1035 1 31.8446 16.8366 70.759
1039 1 7.07861 20.5984 71.3377
1041 1 11.7994 21.1249 70.6043
1043 1 16.6647 20.9168 71.196
1045 1 21.4088 21.5584 70.5928
1047 1 27.1488 21.3789 70.9519
1049 1 32.1115 21.0073 70.4004
1115 1 21.2964 21.6437 75.9642
798 1 34.0109 7.36431 58.0176
982 1 4.23342 3.71599 73.9413
984 1 8.90349 3.4269 73.8154
783 1 31.9577 0.985009 57.2116
988 1 19.3321 3.1408 73.2406
1117 1 26.8082 21.1301 75.2497
1038 1 4.40904 23.2478 73.9188
990 1 23.5529 2.94409 72.9139
992 1 29.8431 3.0921 73.7724
2461 1 26.2706 25.7969 75.7763
1044 1 18.9167 23.7207 73.3489
1069 1 11.6782 5.75542 75.4542
998 1 9.2553 8.5051 73.4824
1071 1 16.9122 5.79444 75.4542
1073 1 21.5958 5.84963 75.2595
1075 1 26.807 5.38508 74.9234
1105 1 32.0044 15.7511 76.0116
996 1 3.81399 9.30398 73.6958
1067 1 6.22016 6.16205 76.1928
1081 1 6.58274 10.7792 76.1623
1000 1 13.7445 8.85877 73.4089
1002 1 18.6833 8.99573 73.4806
1087 1 21.8314 11.6075 75.8383
1004 1 24.5693 8.93932 73.0513
1006 1 28.6555 8.9661 72.976
1091 1 31.9796 11.1548 75.4494
1010 1 3.83646 13.9783 74.0515
981 1 1.82526 1.09833 71.6014
1012 1 9.60422 13.9501 73.6822
1016 1 18.4935 13.6948 73.7815
739 1 26.0631 10.5273 51.9929
1018 1 23.7184 14.4356 72.8628
1089 1 26.3031 12.0743 75.4604
1020 1 29.6214 13.6017 72.8095
767 1 26.351 21.0781 51.609
761 1 11.0391 20.505 51.3734
2389 1 21.8563 25.8052 70.2116
1097 1 12.1276 16.5411 76.2968
703 1 5.12535 1.54883 51.7138
1101 1 21.0331 16.1678 75.5865
1032 1 24.1796 19.0472 73.3436
1103 1 27.3406 16.1183 75.4081
2317 1 16.7118 25.7686 65.2843
1024 1 3.92229 18.5548 73.8916
725 1 26.5626 5.89859 51.6326
1026 1 9.44543 19.1211 74.384
1028 1 14.1066 19.1201 73.8241
1030 1 19.622 19.0091 73.1734
1042 1 14.4178 23.1575 74.3069
1034 1 29.9408 19.0945 73.3217
2107 1 16.3903 25.5365 52.4274
2387 1 16.5855 25.6747 70.8254
2175 1 10.3619 25.7174 57.1201
1061 1 26.5134 0.846108 75.9591
1053 1 6.43707 1.40563 76.1246
1099 1 16.4121 16.3109 76.167
911 1 1.13043 1.36742 67.5656