ITEM: TIMESTEP
72000
ITEM: NUMBER OF ATOMS
16000
ITEM: BOX BOUNDS pp pp pp
3.9490196952577605e-01 1.0180509803047664e+02
5.7058968741980252e+00 9.6494103125801018e+01
-5.1522854461104117e+00 1.0735228544610986e+02
ITEM: ATOMS id type x y z
336 1 29.8438 20.9364 22.402
221 1 24.5591 5.73325 12.3039
6 1 15.1545 8.30154 -4.85129
10982 1 0.509872 21.3397 5.53929
8 1 19.6575 8.02945 -3.68595
10 1 23.6147 8.10144 -3.28321
12 1 28.1654 7.81629 -2.36216
14 1 32.9135 7.40603 -2.14308
85 1 3.5227 9.91745 -2.76019
87 1 8.15979 10.1553 -2.73625
89 1 12.7965 9.97058 -2.10146
22 1 19.5352 12.4485 -3.73892
24 1 24.2717 12.3725 -3.81157
26 1 28.1183 12.3278 -3.19022
28 1 32.4669 12.1092 -2.05909
99 1 3.82489 14.5372 -3.05295
101 1 8.31469 14.8222 -2.14547
103 1 12.5537 14.5135 -2.23713
10956 1 0.441911 12.1165 6.11748
5822 1 34.2733 14.2969 13.5587
113 1 3.36207 18.8927 -2.84837
115 1 7.52344 19.5068 -1.86135
117 1 12.3166 18.9663 -1.49007
34 1 15.0403 17.4748 -4.8444
36 1 19.4903 17.1394 -4.29372
38 1 24.1553 17.1335 -3.89304
40 1 28.5942 16.6106 -2.71087
42 1 32.7037 16.8848 -1.86324
32 1 10.4533 17.0296 -4.554
127 1 3.88442 23.9234 -2.41621
129 1 8.0093 23.731 -1.79374
46 1 10.3766 21.6568 -4.83138
131 1 12.6614 23.5783 -1.02922
48 1 14.9488 21.7198 -4.35657
50 1 19.7693 22.0025 -4.28934
52 1 23.9751 21.8354 -3.87418
54 1 28.4542 21.2853 -2.83671
56 1 32.9273 21.6895 -2.31227
149 1 21.244 5.65278 5.98978
62 1 15.3157 25.7415 -4.38463
219 1 20.2137 5.57932 11.6163
64 1 19.4234 26.5727 -3.97489
66 1 23.954 26.3637 -3.10924
68 1 28.4808 25.9137 -2.45246
70 1 33.4903 25.8805 -2.29407
10878 1 1.8192 7.58181 -0.153503
72 1 6.54154 8.13109 0.241953
74 1 10.3107 7.39969 0.753689
76 1 14.7144 8.30444 1.74565
289 1 19.5392 5.99052 18.1171
306 1 26.26 11.878 22.5985
1687 1 15.5197 28.3084 18.2315
10891 1 1.16122 12.0225 0.250056
86 1 5.18114 12.1025 0.177833
88 1 10.1718 11.2166 0.504146
91 1 17.4663 10.1568 -1.30937
93 1 21.5412 10.8647 -0.25025
95 1 25.2719 10.2208 -0.244969
105 1 16.657 14.8997 -1.21299
107 1 21.3873 14.7251 -0.995632
109 1 26.4933 14.7774 -0.294002
111 1 30.263 14.1224 0.661959
10904 1 1.2937 16.7237 -0.100261
100 1 5.95778 16.6861 0.243372
102 1 10.4317 16.8901 1.50244
119 1 17.085 19.4554 -1.11553
121 1 21.8427 19.5077 -0.865438
123 1 25.9566 19.5671 -0.129206
10917 1 1.00582 21.5243 -0.498828
114 1 5.32105 21.3545 1.31187
116 1 10.3238 21.801 1.87806
118 1 15.0708 21.4871 2.04223
133 1 17.0886 24.321 -0.904916
135 1 21.3857 23.9133 -0.469793
139 1 30.2476 23.862 0.446436
10930 1 1.4678 26.1734 -0.363664
128 1 5.65107 27.0889 0.679393
130 1 10.0943 26.675 1.48313
132 1 14.53 25.6625 1.49695
10969 1 0.908147 16.9126 6.02727
137 1 25.8859 23.6404 0.25796
1483 1 30.8498 28.2044 0.317877
60 1 9.95011 26.4575 -5.03968
369 1 10.1071 9.65847 22.6785
215 1 11.4349 5.9091 10.7247
78 1 18.9412 7.71904 2.33276
80 1 23.6802 7.8923 2.76214
82 1 28.2078 7.91221 3.62043
84 1 32.3647 8.23436 4.27374
155 1 3.05715 10.1332 2.61417
157 1 7.83603 10.1501 3.72791
90 1 14.2322 12.4563 0.574528
159 1 11.5934 9.49989 4.74221
92 1 18.6332 12.5335 2.33988
161 1 16.3207 9.89396 5.5459
94 1 23.256 12.6897 2.71107
97 1 29.908 10.046 0.446982
96 1 27.7622 12.3112 3.98179
98 1 32.3317 12.6178 4.12912
169 1 3.54529 14.3998 3.16852
171 1 7.63993 14.8355 4.23991
173 1 12.1352 14.2694 4.3069
104 1 14.6488 17.036 1.2677
106 1 18.6221 16.6327 2.22335
110 1 27.8555 16.6927 3.50745
183 1 3.22186 18.8091 3.29642
185 1 7.81629 18.8694 3.80572
187 1 11.6177 19.0306 4.29153
189 1 16.3955 18.9063 5.24998
108 1 23.4794 16.792 2.69469
125 1 30.3125 19.0479 0.486577
112 1 32.3196 17.2474 4.65577
197 1 3.17788 24.4496 3.54089
199 1 7.35717 24.5222 4.07573
201 1 11.8596 23.8481 5.01587
120 1 19.1257 21.4654 2.22475
122 1 23.8717 21.5039 2.85434
124 1 28.3396 21.5058 3.67223
126 1 31.9794 21.1669 4.49375
134 1 18.8573 26.0862 2.92381
136 1 23.4413 25.9118 3.22338
138 1 28.0291 25.988 2.85622
140 1 32.4113 25.9632 4.12849
142 1 5.10271 7.96751 6.53483
144 1 9.47492 8.04294 7.52317
146 1 14.0229 7.61566 8.34481
148 1 18.4083 7.80544 8.08115
211 1 2.5474 6.10129 9.70459
1551 1 25.334 27.9505 6.35427
156 1 4.99791 12.69 6.54701
158 1 9.52594 12.3305 7.79126
160 1 13.5121 12.3574 7.42528
162 1 18.0728 12.3363 8.37534
163 1 21.0615 10.4763 5.61015
165 1 25.5538 10.189 6.33343
167 1 30.1717 10.0005 7.34405
174 1 14.0314 17.0548 7.78271
175 1 16.3559 14.5442 4.83588
177 1 20.8644 14.7418 5.93266
179 1 24.6703 14.9919 6.53029
181 1 29.3296 14.3154 6.66596
1689 1 19.648 28.2807 18.1553
348 1 26.3899 25.8593 22.2739
170 1 5.46957 16.8851 6.75672
172 1 10.2837 16.9379 7.28915
191 1 21.0216 18.7145 5.46136
193 1 25.4333 19.1555 6.26251
195 1 29.767 19.0327 7.10659
184 1 4.74789 21.6434 6.15599
186 1 9.24931 21.5718 7.2469
188 1 13.8832 21.3597 7.71047
203 1 16.3554 23.5389 5.31763
190 1 18.102 21.1885 8.87389
205 1 20.8955 23.394 5.96968
192 1 22.4762 21.179 9.32121
207 1 24.9836 23.2992 6.60689
198 1 5.1849 26.6698 7.68647
200 1 9.89884 26.3935 7.36716
202 1 14.4115 26.6756 8.00846
204 1 18.1953 25.4802 9.13258
10943 1 0.423646 8.01634 5.98823
209 1 29.231 23.5352 6.63545
395 1 5.74506 19.4203 22.3304
285 1 11.2049 5.56942 17.1428
150 1 22.1442 8.17683 8.91496
152 1 27.5484 8.11716 9.90729
154 1 31.8205 7.93976 10.4538
225 1 2.3922 10.1094 9.65276
227 1 6.80048 9.98235 9.89682
229 1 11.5171 10.5412 11.0571
231 1 15.6367 9.81153 11.2244
233 1 19.8463 10.3725 12.1679
164 1 22.5303 12.7617 9.76872
166 1 27.0818 12.272 9.66652
168 1 31.7321 12.2532 10.5284
239 1 2.41859 14.7989 9.5835
241 1 6.91629 14.76 10.4193
243 1 11.5218 15.0743 10.5322
245 1 15.4701 14.6254 11.2942
247 1 20.2158 15.328 12.1619
253 1 2.34208 19.2228 9.24935
255 1 6.83234 19.2886 9.76541
257 1 10.9414 19.6328 10.4766
176 1 18.6765 16.944 8.60403
259 1 15.4468 19.3482 11.357
178 1 22.7244 17.2512 9.40956
261 1 19.9491 18.9849 12.4958
263 1 24.6416 18.9758 13.1044
180 1 27.4536 17.2083 10.0207
182 1 31.7979 16.1737 10.1945
267 1 2.25406 23.7814 9.61405
269 1 6.9012 23.498 9.63069
271 1 11.2224 24.1392 10.4897
273 1 15.53 23.8415 11.5446
275 1 20.2216 23.827 12.3477
194 1 27.7946 21.3683 9.59375
196 1 31.7367 20.8108 10.6588
206 1 22.6188 25.9648 9.62813
208 1 27.0007 25.9955 9.07413
210 1 31.6268 25.6646 9.82096
1473 1 8.027 28.368 -2.02821
212 1 4.47574 8.01123 13.1934
214 1 8.95927 8.47129 13.9106
216 1 12.9837 8.14571 14.6235
218 1 17.5628 7.76047 14.9743
220 1 22.0617 7.52732 15.5149
1475 1 12.8364 28.1355 -1.01745
342 1 12.9499 26.5612 20.8584
226 1 4.34441 12.3716 13.0879
228 1 8.54963 13.1412 13.7456
230 1 13.2376 12.5532 14.1146
232 1 17.8097 12.7428 14.8006
234 1 22.3136 12.3079 15.5561
235 1 24.3362 9.92593 12.8699
237 1 28.9359 9.8465 13.4239
309 1 1.80505 14.5838 15.603
240 1 4.5376 17.0628 12.9023
246 1 17.5929 17.1736 14.8107
249 1 24.9737 14.6928 12.6179
251 1 29.5001 14.3117 12.7449
292 1 26.2481 7.50886 22.8424
323 1 1.95866 19.1663 16.0646
242 1 9.08018 17.2071 13.5685
244 1 12.9087 17.2757 14.5678
248 1 22.0055 16.9361 16.1145
265 1 29.3084 19.0846 13.0124
250 1 26.8559 16.5558 15.8926
5835 1 34.1184 18.196 13.6292
254 1 4.31205 21.1126 12.9681
337 1 2.17724 23.182 15.598
256 1 8.70554 21.4641 13.507
258 1 13.0554 21.6938 13.851
260 1 17.4807 21.9269 15.1085
262 1 21.8765 21.6106 15.5127
277 1 24.8768 23.6222 12.539
279 1 29.3708 23.2512 12.9138
264 1 26.8498 21.2567 16.3384
5848 1 33.3265 24.0119 13.5321
268 1 4.45026 25.7613 12.9923
270 1 8.75845 26.5676 13.9965
272 1 12.7652 26.4925 13.9891
274 1 18.128 26.3357 14.7954
276 1 22.2788 25.446 15.7351
334 1 26.0199 21.2771 22.7357
282 1 4.07123 7.53716 19.0645
5809 1 33.5596 10.047 14.1669
344 1 16.8706 26.1802 21.2116
77 1 17.2318 5.76817 -1.36977
346 1 21.9192 25.9166 21.7691
222 1 26.7605 7.63428 16.1908
1691 1 24.3208 28.4413 18.7881
224 1 30.9239 7.60255 16.8245
295 1 1.82325 9.93711 15.4987
296 1 3.51144 12.1643 19.1201
297 1 6.15849 10.5644 16.9447
299 1 10.108 10.6619 17.2691
301 1 14.7346 10.0719 17.4966
303 1 19.3425 9.89625 18.2995
236 1 26.9178 12.2913 16.1849
305 1 23.9353 9.91487 19.0853
238 1 30.7029 12.1186 17.2497
311 1 6.43637 14.5012 16.5
313 1 10.995 14.8979 17.4141
315 1 14.9762 14.9592 17.6501
317 1 19.5965 14.3361 18.0926
319 1 24.4291 14.4007 19.405
321 1 28.4624 14.2858 19.6003
310 1 3.78285 16.9291 19.3413
325 1 6.23732 19.226 16.7822
327 1 10.7831 19.6298 17.546
329 1 15.3128 19.3224 18.2896
331 1 19.326 18.9108 17.9692
333 1 24.0701 18.9839 18.8218
335 1 28.6136 18.6711 19.6675
252 1 31.4211 16.411 16.7579
324 1 3.45187 22.1478 19.1145
339 1 6.64603 23.5419 16.2679
341 1 10.4493 24.0639 16.6179
343 1 14.9708 23.9685 17.5068
345 1 19.8125 23.5793 18.3111
347 1 24.032 23.7309 19.1148
266 1 31.5092 20.9164 16.698
338 1 3.84234 25.86 19.0479
340 1 7.88298 26.4265 18.6314
1541 1 3.37712 28.3202 3.52745
278 1 27.1127 25.8966 15.857
280 1 31.4259 25.4773 16.5866
351 1 0.771249 5.98479 21.8549
284 1 7.97356 7.36269 20.0466
286 1 12.602 7.7736 20.2751
288 1 16.5556 7.94934 21.4483
290 1 21.135 7.70026 21.935
1753 1 5.73641 28.1211 22.1637
365 1 1.9598 10.1583 22.0359
1553 1 30.0739 27.7423 6.60003
298 1 8.17177 12.1112 20.2367
300 1 12.445 12.3707 20.6095
302 1 17.0817 12.6661 20.8739
304 1 21.4667 12.4005 22.1482
307 1 28.6485 10.4007 19.8521
1545 1 11.8829 28.3083 4.522
5874 1 33.5257 9.54828 19.9647
379 1 1.21672 14.7985 22.2289
381 1 5.72888 14.7606 22.7827
1549 1 20.8614 28.2083 6.1105
5887 1 33.2304 14.5249 19.824
393 1 1.06938 19.2918 21.3369
1621 1 25.1221 27.7833 12.5489
312 1 7.99806 17.3388 19.9894
314 1 12.4173 17.1124 21.2393
316 1 16.9891 16.7101 21.0919
318 1 21.4693 16.7982 21.5746
320 1 26.132 17.3487 22.6196
5900 1 33.4066 19.1264 20.1369
407 1 1.22938 24.0933 21.9221
409 1 5.98555 24.2049 22.3838
326 1 8.07691 21.8941 19.9118
5913 1 33.0577 23.7284 19.9984
328 1 13.43 21.7994 20.7027
330 1 17.2944 21.7613 21.0125
332 1 21.5894 21.0996 22.2318
308 1 30.6891 12.0032 23.0417
349 1 28.2771 23.1087 19.3198
1623 1 29.0407 27.7944 13.2025
1751 1 0.825196 27.9683 21.9807
1693 1 28.8554 27.6588 19.657
7096 1 33.6922 27.8723 13.3552
7161 1 32.7414 28.219 19.9291
294 1 30.5814 7.65767 22.7886
367 1 5.56661 10.1691 22.5696
18 1 10.6052 12.6802 -5.1875
20 1 15.112 12.8825 -5.02518
352 1 2.752 8.08767 25.7259
354 1 7.48799 8.17684 26.3783
6173 1 34.1435 23.6876 41.5623
571 1 21.6906 5.92711 43.8502
505 1 0.883155 10.4025 34.5726
6121 1 34.1674 6.15639 42.006
366 1 3.19913 12.6748 25.8343
368 1 8.44237 12.0072 25.5185
6160 1 34.0242 19.0337 41.9142
371 1 14.5558 10.1442 23.9715
373 1 19.1476 10.1638 24.6631
375 1 23.8431 9.95529 25.0939
377 1 28.2693 10.3672 25.9311
380 1 2.86512 17.0042 25.2622
383 1 10.1117 14.9065 23.6043
385 1 14.8495 14.7857 23.6667
387 1 19.4112 14.3782 24.3831
389 1 23.3631 14.3977 25.2288
391 1 28.0487 14.3286 25.8752
491 1 0.460413 5.80391 34.7788
5952 1 31.9775 14.4095 26.6851
382 1 7.52082 16.7175 25.7288
397 1 10.2671 19.8139 23.3625
399 1 14.9286 19.3704 24.4714
401 1 18.8912 18.9804 24.5547
403 1 23.5104 19.1325 24.9613
405 1 28.0451 18.4772 25.9779
394 1 3.39525 21.3321 25.0341
396 1 7.93508 21.7757 25.8284
413 1 15.2787 24.1294 24.0379
415 1 19.1337 23.7028 24.8669
417 1 23.5522 23.882 25.4535
419 1 28.2936 24.041 25.5809
503 1 27.175 5.98491 38.4723
408 1 3.17661 26.2431 25.5152
410 1 7.74899 26.5465 25.9693
7356 1 33.5387 27.831 37.6145
573 1 28.1791 5.67397 42.5717
1759 1 19.3461 28.4036 24.8526
1965 1 8.48821 28.1082 42.4788
431 1 22.9246 5.87057 32.1153
356 1 12.0803 8.02721 27.1312
322 1 30.689 16.5366 22.8499
358 1 16.6519 8.03153 27.1525
360 1 21.0255 7.87315 28.5529
362 1 25.0502 7.87932 29.1446
364 1 29.6439 7.85242 29.6422
435 1 0.64829 10.0328 28.2539
437 1 5.37091 10.1405 29.1328
439 1 9.7347 10.4078 29.9163
370 1 12.4142 12.8446 27.059
372 1 17.1378 12.512 26.7922
374 1 21.8502 12.0606 28.7847
376 1 25.7456 12.3595 28.5836
378 1 30.309 12.4299 29.4788
5939 1 32.7306 9.89196 26.6135
449 1 0.825994 14.8394 27.9051
451 1 5.52026 14.205 28.4154
453 1 9.53542 14.3435 29.296
463 1 0.555232 19.6497 28.3005
465 1 5.20934 19.4924 28.1718
467 1 9.63077 19.2066 29.1673
384 1 11.7016 16.9775 26.4383
469 1 14.0393 18.9704 30.2777
386 1 16.1264 17.0608 27.5779
388 1 21.009 16.9266 28.2443
390 1 25.4417 17.162 28.5175
392 1 30.1195 16.5668 29.5948
5965 1 32.4214 19.4759 26.2003
634 1 5.37148 7.41733 51.1766
479 1 4.89006 24.1992 28.5694
481 1 9.40189 23.8538 29.8073
398 1 12.2344 21.6263 26.6708
400 1 16.1713 21.4392 27.5065
402 1 21.1232 21.3501 27.1617
404 1 25.58 21.7621 28.2729
5978 1 33.0846 23.5811 26.2913
406 1 30.1762 21.2332 29.033
567 1 12.9643 6.23336 42.363
412 1 11.855 26.3451 26.5812
414 1 16.5815 26.2253 26.9284
416 1 21.2849 25.7065 28.5106
418 1 25.9077 25.7613 29.0039
420 1 30.6172 25.8997 29.281
422 1 2.3627 8.01379 32.033
424 1 6.53303 8.04801 32.352
426 1 11.8342 7.73933 32.9442
428 1 16.2692 7.99998 33.3391
433 1 27.923 6.07898 32.5037
436 1 2.64138 12.6712 31.7086
438 1 7.44335 12.7935 32.3082
440 1 11.5202 12.3634 32.6925
441 1 14.1651 10.5834 29.948
443 1 18.8736 10.332 30.4556
442 1 16.3519 12.6946 33.3816
445 1 23.4457 10.1572 32.0362
447 1 27.5527 10.3546 32.3688
6004 1 32.1702 10.3316 32.7629
450 1 2.65251 16.7424 31.2417
452 1 6.90973 16.8654 32.7794
455 1 14.4054 14.4555 29.8942
457 1 18.5832 14.5163 30.7513
459 1 23.1297 14.7434 31.8319
461 1 27.4994 15.1312 31.9898
6017 1 32.0513 14.9516 32.7537
471 1 18.9068 19.2005 30.664
473 1 23.4034 19.1034 30.824
475 1 28.3852 19.3304 31.7532
6030 1 32.4277 19.1501 32.7037
464 1 2.52018 20.5673 31.7825
466 1 7.12117 21.1126 31.4826
483 1 14.0341 23.5573 29.7835
468 1 11.7508 21.5156 32.3123
485 1 18.3655 23.1898 31.3115
487 1 23.0789 23.6003 31.4756
489 1 27.8825 23.9233 31.9509
6043 1 32.1609 23.8412 32.3265
478 1 3.14624 25.9063 31.5659
480 1 7.11896 26.1767 32.0257
482 1 11.6545 26.093 33.0762
569 1 17.548 6.41486 43.3864
430 1 20.5986 7.90787 34.9345
432 1 25.2376 7.80292 34.935
434 1 29.3717 8.68399 35.5484
507 1 4.96314 10.2041 35.2424
509 1 9.0182 10.1647 35.8001
511 1 13.4793 10.3122 36.224
513 1 18.0018 10.459 37.0649
444 1 20.6706 12.536 34.0873
446 1 25.1356 12.7018 35.4159
448 1 29.7422 13.1321 35.7161
521 1 4.50643 14.8866 35.1279
454 1 11.5046 16.9948 32.4253
523 1 9.06642 14.7116 36.2045
525 1 13.203 14.8064 36.2401
527 1 17.8995 14.9171 36.7353
460 1 25.284 17.4108 34.4468
535 1 4.6154 19.3366 34.7526
537 1 9.20143 20.0046 34.7395
456 1 15.964 16.4729 33.0402
539 1 13.5413 19.0879 35.8879
458 1 20.4698 17.123 33.7942
462 1 29.9906 16.8847 35.6555
700 1 32.8092 25.7447 48.7569
549 1 4.44591 23.5044 34.5207
551 1 8.78693 23.8667 35.8692
553 1 13.544 23.8652 36.5576
470 1 16.079 21.1607 33.8591
472 1 20.8619 21.2753 34.3505
474 1 24.6944 21.6172 34.5498
476 1 29.183 21.1832 35.3414
350 1 30.888 25.6038 23.0461
484 1 15.476 25.6149 33.7477
6147 1 34.0957 14.6608 41.5732
486 1 20.5034 26.224 34.2177
488 1 25.0606 26.3639 34.9407
490 1 29.9384 25.6665 35.7345
676 1 5.60399 21.4841 51.1767
492 1 2.45884 8.49107 37.9682
494 1 6.88218 7.82085 39.342
496 1 10.8139 7.86738 39.5086
502 1 24.3012 7.84381 41.2617
504 1 30.8272 8.24796 40.2363
506 1 1.79386 12.3267 38.1231
508 1 6.47626 11.8585 39.0677
510 1 10.6154 12.6813 39.1449
512 1 15.1053 12.5607 39.8405
515 1 22.4738 10.4967 37.6367
514 1 19.7716 13.0328 40.5845
517 1 26.9201 10.2015 39.0923
6069 1 33.0759 9.80713 37.1547
518 1 30.2343 12.3683 39.9227
520 1 1.9606 16.626 37.4262
522 1 6.33774 17.3626 38.3268
524 1 10.5732 17.2014 39.0367
526 1 15.2663 17.3004 39.4723
529 1 22.5698 14.9255 37.4796
530 1 23.8399 17.1209 41.2166
531 1 27.0203 15.3815 38.4228
6082 1 33.8458 14.8573 37.2616
541 1 18.7682 18.9723 37.074
543 1 23.003 19.3927 37.2286
528 1 19.8205 17.0183 40.5781
545 1 26.9314 19.1926 38.2848
532 1 30.4304 16.658 40.1307
6095 1 33.0886 19.0634 37.1189
534 1 2.32278 21.6246 38.0608
536 1 6.74172 21.5899 38.2297
538 1 11.2306 21.1105 38.8998
555 1 18.0126 23.44 36.9437
540 1 15.624 21.2606 39.4036
557 1 22.8118 24.4088 37.5253
559 1 27.4275 23.5719 37.9458
6108 1 33.1678 23.7053 36.6329
546 1 30.5417 21.3173 39.8902
548 1 2.42577 25.8297 38.01
550 1 6.63397 26.4183 39.1784
552 1 10.9156 25.7389 38.9531
554 1 15.3717 25.7174 40.22
556 1 19.8404 26.3846 40.6888
558 1 24.5234 26.0639 41.5846
632 1 1.02123 7.21708 50.873
560 1 30.3002 26.0361 40.6596
498 1 15.5575 8.08755 40.049
500 1 19.7322 8.28913 40.2415
411 1 10.6086 24.4476 23.197
577 1 4.05667 10.6486 41.8429
579 1 9.00677 10.1802 42.2504
581 1 13.1587 10.5333 42.6186
583 1 17.4142 10.4885 43.3681
585 1 21.4552 10.6071 44.1103
516 1 24.4499 12.4363 41.1777
587 1 27.901 10.0254 43.2159
1895 1 9.23777 28.1572 35.4601
591 1 3.69845 15.1857 41.4277
590 1 1.32464 17.077 44.0848
593 1 8.52122 14.6924 41.7446
595 1 13.2019 15.345 42.2045
597 1 17.9277 15.1664 43.4371
599 1 22.3635 14.5493 43.8397
601 1 28.0003 13.9477 42.5746
698 1 26.3173 26.3079 50.0819
605 1 4.22049 19.0527 41.1046
607 1 8.55134 19.0513 41.5038
609 1 12.9064 19.8556 42.9463
611 1 17.3583 19.3797 43.2447
613 1 21.9995 19.3257 43.8487
615 1 27.8983 18.5981 42.8011
1893 1 4.35889 28.2113 35.2797
684 1 26.5592 20.5152 49.0921
619 1 4.32635 23.5388 41.8478
621 1 8.7276 23.3914 42.1165
623 1 12.8249 23.7582 42.5804
625 1 17.3469 24.1194 43.0907
542 1 20.0072 21.834 40.2939
627 1 22.0155 23.998 43.7085
544 1 24.7254 21.626 40.7973
629 1 28.0435 23.2507 42.6349
361 1 23.8559 5.95433 25.3222
565 1 8.61526 5.58014 42.2146
1761 1 23.8105 27.9938 25.3117
697 1 23.0627 23.8664 47.9116
562 1 1.24724 8.23763 44.4728
564 1 5.87061 7.32247 44.7001
566 1 10.4924 7.30521 45.3497
568 1 14.571 8.33213 46.1185
570 1 19.7588 7.63544 47.3918
572 1 25.4794 8.00853 45.6961
574 1 31.5395 8.06066 44.7631
576 1 1.1333 12.5974 44.339
647 1 3.64661 9.94177 47.9672
578 1 6.46593 12.0606 44.8625
580 1 10.7192 12.8836 45.5317
582 1 15.2578 12.5912 45.9007
584 1 19.7377 12.2643 47.0689
586 1 26.0478 13.2326 46.2621
657 1 29.1891 10.1838 47.7673
588 1 31.0455 12.793 44.6139
661 1 3.21072 14.2716 47.5205
592 1 5.81859 16.7128 44.4672
671 1 28.8106 14.8502 48.1288
675 1 3.57049 18.9343 47.8194
594 1 10.3185 16.9612 45.4525
596 1 14.9263 17.2904 46.3775
598 1 20.2582 17.1342 46.8163
600 1 25.6251 17.5111 45.6721
685 1 29.6629 19.5517 47.1123
602 1 31.2953 16.7309 44.6935
604 1 1.13141 21.2918 44.6165
606 1 5.91652 20.8269 44.9222
608 1 10.4219 21.2923 46.2044
610 1 15.1117 21.4379 45.8292
612 1 19.6954 21.7243 46.0173
614 1 25.8178 21.7105 45.3762
699 1 29.2479 23.7658 47.3531
616 1 31.7167 21.353 44.1289
618 1 1.19239 25.757 44.7194
620 1 5.89878 25.4391 45.0575
622 1 10.3983 25.9485 45.6914
624 1 15.0932 26.1745 45.9871
626 1 19.2289 26.4539 46.4909
628 1 25.4678 26.1831 45.6591
630 1 31.7734 25.9197 44.2951
563 1 3.81903 5.92093 41.3654
1763 1 28.5592 28.0845 25.9064
688 1 0.671278 25.379 50.3334
642 1 26.4673 7.58675 49.9973
644 1 32.3667 8.02283 48.6306
646 1 0.69274 12.1037 50.6035
1821 1 0.942372 28.2716 28.0349
649 1 8.34603 9.38761 48.1114
651 1 12.5475 10.3576 49.0581
653 1 17.2791 9.67626 49.293
686 1 32.6689 21.7913 48.8236
655 1 23.6693 9.87138 48.1558
656 1 26.5354 12.896 50.3041
658 1 31.8895 12.5723 49.0542
660 1 1.51083 16.6193 50.6436
695 1 17.5356 23.74 48.9795
663 1 7.57033 14.9507 48.1641
665 1 12.9985 15.0613 48.6883
667 1 17.0797 14.5707 49.2816
669 1 23.2309 14.5395 48.7993
672 1 32.7139 16.8752 49.1031
677 1 7.82548 18.7135 47.9833
679 1 13.1028 18.9523 49.2663
681 1 17.2117 19.7417 49.638
683 1 22.9068 19.2654 48.4691
670 1 26.4348 16.7837 50.4926
689 1 3.79725 23.6294 47.7518
674 1 1.08192 21.4127 50.6384
691 1 8.32694 23.6688 48.5284
693 1 12.7063 23.7322 49.136
1831 1 23.0658 27.2594 31.4834
7291 1 32.4813 28.2611 33.0456
2041 1 23.0856 28.2629 48.0445
1903 1 27.0064 27.9001 38.4597
1963 1 4.01104 27.8591 41.6811
2039 1 17.1016 28.2064 49.459
637 1 13.112 6.00953 48.9205
696 1 21.0675 25.8095 50.845
6056 1 32.5792 5.96866 37.5591
1899 1 17.793 27.8671 36.9764
1829 1 18.7775 27.9274 30.8032
1833 1 27.8847 28.0163 32.438
499 1 17.9299 5.94646 37.3491
2033 1 3.05268 28.2575 47.356
429 1 18.4895 5.54399 30.7774
2035 1 8.23039 27.8993 48.0386
662 1 5.48365 16.8016 51.2379
648 1 5.57397 11.8913 50.9219
730 1 0.83858 16.1352 56.7772
636 1 9.71649 7.16808 51.9942
638 1 14.3311 7.7457 52.2781
919 1 21.4123 5.82478 67.5514
712 1 27.5367 7.88998 54.0706
917 1 15.5152 5.61169 68.3801
714 1 34.0621 7.53386 53.0235
717 1 2.82132 9.5501 54.0012
719 1 7.3251 10.2232 54.3571
650 1 10.1798 12.3966 51.2351
652 1 14.233 12.1611 51.8652
723 1 17.5989 9.55978 53.3616
725 1 23.4375 10.172 52.7312
726 1 26.895 12.4957 54.7032
755 1 29.7971 19.2562 51.6205
682 1 21.3028 21.5394 51.1859
731 1 2.86243 14.1557 54.1387
733 1 7.25148 14.462 54.5417
664 1 10.0915 16.6466 51.8454
666 1 14.609 16.8343 52.4746
737 1 18.1236 14.0288 53.8021
2247 1 13.7051 28.4386 63.7764
739 1 23.9724 14.7553 53.311
741 1 30.4235 15.0343 51.8339
2177 1 12.9525 28.0325 59.3127
745 1 2.84262 19.2461 54.1481
747 1 7.57477 19.2537 54.634
753 1 24.3951 19.1603 52.6547
740 1 27.6057 17.1011 55.121
728 1 33.9819 12.0023 53.3838
759 1 3.06129 23.9061 54.1849
913 1 2.7528 5.73986 70.3347
761 1 7.46787 24.0941 54.349
678 1 10.216 21.2251 51.9585
680 1 14.5837 21.8521 52.3291
765 1 18.0856 23.7749 53.742
2457 1 16.7862 27.99 77.7601
767 1 24.3447 24.0165 52.9288
754 1 27.7719 22.1795 54.6907
756 1 33.7146 21.3626 52.6671
923 1 33.586 5.76194 64.6083
2181 1 24.7548 28.3643 57.4804
692 1 10.0061 26.1495 51.9533
694 1 15.1521 26.2032 51.9998
849 1 20.6965 5.91128 62.9939
991 1 28.281 5.56926 70.9562
744 1 0.411389 20.929 56.4425
704 1 4.55072 7.78504 57.2936
706 1 9.28619 8.02132 57.997
985 1 9.85582 5.73714 74.4669
708 1 15.1004 7.49801 56.8636
710 1 21.0781 7.45044 55.7657
2253 1 32.2126 28.1475 60.7783
1042 1 13.65 25.7073 76.5982
718 1 4.67133 12.4181 57.2315
721 1 11.8157 10.2204 54.9571
722 1 15.3855 12.4906 56.2476
724 1 20.9128 11.5626 55.2631
793 1 17.7303 9.87835 58.0665
795 1 24.739 10.2238 56.9415
797 1 31.2064 9.81735 56.0314
735 1 11.8937 14.2549 54.9315
736 1 15.5884 16.6744 56.5198
809 1 25.5068 14.9398 57.6803
811 1 31.3208 14.3615 56.0112
732 1 4.44248 17.0771 57.1252
734 1 9.12715 16.8459 58.0985
749 1 11.9898 19.1171 55.0887
751 1 18.2459 19.4739 53.9171
738 1 21.2353 16.4412 56.01
823 1 25.1033 19.999 56.8191
825 1 31.0478 18.7839 55.5664
746 1 4.56087 21.8871 57.1219
763 1 12.1658 23.794 54.9673
750 1 15.6123 21.2906 56.5914
752 1 21.8702 21.2336 55.7366
837 1 25.3891 23.8397 57.4936
824 1 29.4135 21.5725 57.979
839 1 31.8592 24.1748 55.8329
727 1 30.2663 10.2647 52.276
760 1 4.6038 26.326 57.3277
762 1 9.11659 26.1127 57.5979
1119 1 34.002 24.5544 76.0146
764 1 15.8321 25.979 56.4072
766 1 21.6788 25.3305 55.2812
768 1 27.9715 26.3674 54.7469
1038 1 0.670563 25.9535 77.7502
843 1 1.82006 5.98024 65.7708
778 1 16.3293 7.62725 61.8423
780 1 22.8102 8.00796 59.9867
782 1 29.2608 7.58324 59.317
775 1 6.94067 5.66637 61.305
787 1 1.81935 10.2579 60.1933
789 1 6.41188 10.0493 60.9558
720 1 9.326 12.3935 58.1333
791 1 12.9856 9.98008 59.3748
792 1 16.5751 12.2718 60.9057
794 1 22.4138 12.4641 60.2244
796 1 28.5288 12.2812 59.0061
867 1 31.9605 9.76939 60.6337
801 1 1.77145 14.6531 60.1977
803 1 6.43108 14.6783 60.656
805 1 12.765 14.5146 59.6254
806 1 16.1534 16.265 61.3916
807 1 19.2838 14.2601 58.429
810 1 28.9201 16.8228 58.466
881 1 31.9966 14.5516 60.5695
815 1 2.62943 18.8054 60.1102
817 1 7.411 19.2663 61.5054
819 1 12.748 19.1468 59.5737
821 1 18.9143 18.588 58.418
808 1 22.3828 17.3699 60.3834
893 1 26.5349 19.4957 60.8111
895 1 32.8125 19.0125 60.036
829 1 1.76074 23.7401 59.9769
831 1 7.09731 23.49 60.5576
748 1 9.23164 21.5826 57.6681
833 1 13.1788 23.2139 59.1009
835 1 19.4453 23.042 58.2912
820 1 16.5089 21.8342 60.8822
822 1 22.4271 21.2481 59.6995
909 1 32.7087 23.6588 60.5059
2173 1 2.14806 28.5131 60.146
2459 1 22.128 27.0174 75.8468
1104 1 31.4679 21.3962 78.7141
834 1 16.6736 25.9787 60.8405
836 1 22.8221 25.8183 60.2823
2251 1 26.5973 27.7898 62.0068
838 1 29.4989 25.557 59.038
979 1 33.5464 23.7627 64.8495
1118 1 30.8942 26.1472 78.9037
774 1 4.28843 7.85748 63.5705
776 1 10.2101 7.38043 62.5498
690 1 5.27066 26.4246 51.0669
654 1 20.5798 12.4764 51.1204
850 1 23.4341 8.24022 64.4614
852 1 29.521 8.25609 63.834
921 1 28.2069 5.60158 66.2444
788 1 3.92097 12.4648 63.688
790 1 9.92412 11.9668 62.0432
861 1 13.7411 10.1397 63.9129
863 1 20.3136 10.1403 62.7133
865 1 25.9621 9.78496 61.4383
864 1 23.6237 12.1468 64.942
866 1 30.0267 12.4204 63.0759
937 1 33.8261 10.4004 65.0496
802 1 4.09846 16.8304 63.6406
875 1 13.4899 14.8857 64.0164
877 1 20.1073 14.6172 63.1971
879 1 26.1757 14.8347 61.669
804 1 10.5615 17.4741 62.7288
889 1 13.8746 19.1759 64.0815
891 1 19.2948 19.5098 62.7854
878 1 23.3219 16.11 64.7915
880 1 29.9988 17.1845 63.1029
965 1 33.5844 19.2498 64.7517
816 1 4.3465 21.4908 63.3512
901 1 7.78308 23.7143 65.2214
818 1 10.1794 21.8927 62.3739
903 1 14.0026 23.8317 63.8575
905 1 20.2596 24.0548 62.7386
907 1 26.1443 23.1235 62.1733
892 1 23.2673 20.747 63.8526
894 1 29.6592 22.1897 62.5241
1116 1 26.3062 25.8469 77.4034
830 1 4.1906 26.1442 63.4126
832 1 10.7895 25.7403 61.8635
1059 1 23.169 5.93004 76.0809
906 1 23.8266 26.1344 64.5697
908 1 30.0394 25.9039 63.8006
2455 1 10.863 28.3515 78.1704
844 1 5.51726 7.92242 68.0294
846 1 11.672 7.77485 67.0689
848 1 17.6077 8.09945 65.7016
2461 1 28.8043 28.2975 75.4323
2243 1 1.96095 28.0448 66.4974
922 1 31.4286 8.51906 67.7739
857 1 1.42217 9.70697 66.2003
858 1 5.21693 12.1866 68.3156
859 1 8.2824 10.5203 65.214
860 1 10.882 13.405 67.5638
862 1 17.4009 12.663 65.3501
933 1 20.8568 10.1884 67.5111
935 1 27.1549 10.1625 66.0984
936 1 30.9599 12.3459 67.4881
871 1 1.17453 14.3238 66.9076
873 1 7.83278 14.4998 65.109
874 1 10.7823 17.3098 66.9191
945 1 15.3248 14.2388 68.533
876 1 17.617 16.6477 65.6477
947 1 20.7895 14.8369 67.7814
949 1 27.3842 14.5506 66.1385
951 1 33.793 14.6121 64.5997
885 1 1.76235 18.9111 65.8787
887 1 7.45986 19.3374 65.8296
959 1 15.3647 18.6402 68.4754
961 1 20.95 19.4831 67.2564
963 1 26.8946 18.9846 64.6374
950 1 31.1713 17.1006 67.4766
899 1 1.57612 23.2164 66.5621
886 1 4.84661 21.1892 67.8683
888 1 12.0916 21.6557 66.8841
890 1 17.4209 21.73 65.6758
975 1 21.4761 24.099 66.8212
962 1 24.0308 21.5244 68.5452
977 1 26.4624 23.3709 65.9378
1033 1 27.2286 19.5884 68.508
964 1 29.7785 21.3742 66.278
900 1 5.04856 26.0381 67.9307
902 1 10.7621 26.2592 66.5672
2317 1 14.4455 28.1911 68.6558
904 1 17.5434 26.4524 65.2531
976 1 24.7054 26.1543 69.0871
978 1 30.6419 25.7707 67.8184
916 1 12.3858 7.66618 71.3272
918 1 18.5191 7.80224 70.44
1069 1 11.0208 10.0647 78.4363
920 1 24.7077 7.74716 68.7321
927 1 2.55533 10.5028 70.5853
929 1 9.0575 10.4981 69.6613
931 1 15.1386 10.1559 68.5043
930 1 12.388 12.6214 71.7973
932 1 18.4184 12.4086 69.8855
934 1 24.5998 12.3959 69.2124
1005 1 28.1836 10.2669 70.764
1006 1 31.8091 12.1917 72.0923
941 1 2.49589 14.8483 70.6668
872 1 5.15868 16.5646 68.1822
943 1 8.29698 14.944 69.9179
946 1 18.4466 16.9918 70.2809
1017 1 22.0986 14.5014 71.7155
1019 1 28.3399 14.9489 70.3212
1022 1 32.6309 16.7502 71.9948
955 1 2.45032 18.7143 71.2457
957 1 8.4622 19.6407 69.46
944 1 12.2016 17.0766 71.8475
1031 1 21.9288 19.327 71.9144
948 1 24.5511 16.8738 68.5733
1020 1 29.3393 18.576 71.6475
969 1 2.08452 23.5593 70.6544
971 1 9.21715 24.4206 69.4478
973 1 15.4586 23.319 68.3845
958 1 11.9949 21.6794 71.3336
960 1 18.6953 21.7183 69.8569
1045 1 22.217 24.1256 71.8042
1047 1 27.4274 23.8756 70.6551
1035 1 31.0827 21.8452 70.0066
1102 1 26.927 21.4692 77.6387
972 1 12.6366 26.2751 71.6529
1115 1 22.6157 23.0304 76.0659
974 1 18.7513 26.4699 69.7488
2391 1 28.2055 28.3698 70.8815
1048 1 31.4276 25.9027 72.2194
914 1 6.19867 8.22544 72.6731
2463 1 33.8706 27.9906 75.2592
1113 1 16.6958 23.5176 77.5153
988 1 19.4382 8.16854 74.5444
990 1 25.814 7.8538 73.9969
2313 1 2.85332 28.3628 71.0732
992 1 31.9449 8.00975 72.3103
997 1 3.37664 10.5581 75.5116
928 1 6.0673 13.2309 72.6586
999 1 9.41196 10.0291 73.9923
1001 1 16.1845 10.2946 73.1501
1003 1 22.3176 10.2282 71.5816
1002 1 19.7635 12.7969 74.5652
1004 1 25.992 12.5548 73.6499
1075 1 29.8617 10.2777 75.1133
1011 1 3.6638 14.7043 75.6405
942 1 6.08272 17.3735 72.6711
1013 1 9.93344 14.3891 74.5142
1015 1 15.4558 14.8653 72.8117
1018 1 25.635 17.45 73.1422
1089 1 29.1539 15.0611 74.7419
1091 1 33.9964 14.6481 75.4522
1025 1 3.30565 19.8206 75.2654
1027 1 9.44249 19.1082 74.4163
1029 1 15.9792 19.6232 73.0172
1016 1 19.314 16.707 74.646
1103 1 29.2414 19.3307 75.1981
1061 1 29.697 5.87686 75.7031
956 1 6.16693 22.0523 72.299
1041 1 9.62083 23.8401 74.0543
1043 1 15.9035 23.7812 73.1524
1030 1 19.371 21.1565 74.449
1032 1 25.6373 21.3723 73.2824
1117 1 29.2136 23.9302 75.4558
1034 1 32.0728 21.7448 74.104
2383 1 3.62717 27.8822 74.9736
970 1 5.91092 25.9576 72.2748
2387 1 15.9536 28.0826 73.0213
1044 1 18.9844 24.9464 74.9383
1046 1 24.9646 26.0243 73.7664
982 1 1.41996 7.92757 77.8232
984 1 6.98236 7.94168 76.9368
986 1 14.1221 7.84959 75.7301
2179 1 19.1897 27.7748 58.4287
1028 1 13.0356 21.6885 75.9752
770 1 33.8918 26.2553 53.1383
1060 1 26.899 8.32052 77.9883
1062 1 31.6881 8.48184 78.4083
996 1 1.14309 12.5038 78.1229
998 1 7.32312 12.3305 76.7112
1111 1 9.68361 23.8176 78.2362
1000 1 13.4759 12.428 76.4491
1071 1 16.6976 10.4332 77.4245
2249 1 20.0322 28.3622 63.0138
1073 1 23.2573 10.1469 76.2575
1074 1 26.6536 12.8704 77.9894
1076 1 31.3324 12.495 78.7384
1010 1 0.868442 17.2142 78.4217
1012 1 7.18184 16.8988 77.3264
1083 1 10.4797 14.8189 79.0393
1085 1 16.9859 14.509 76.8826
915 1 8.45698 5.86456 70.0347
1087 1 22.9791 14.7675 76.184
1088 1 27.0094 16.5741 77.629
1090 1 31.0689 16.9545 78.4599
1097 1 10.8586 19.2239 79.0003
1014 1 13.1669 16.8734 75.6628
1099 1 16.5351 18.9769 77.5901
1101 1 23.2622 19.2169 76.5723
1040 1 6.64404 26.273 76.9768
1024 1 0.939646 21.31 78.4213
1039 1 2.95734 23.7974 75.2746
1026 1 6.50987 21.6683 76.8801
2175 1 6.62341 27.6675 60.6573
769 1 29.7603 23.8275 51.6389
983 1 3.93062 5.95837 74.9925
2321 1 26.8647 27.963 66.5076
2103 1 3.01613 28.1555 53.9274
668 1 20.2762 17.0054 51.4929