ITEM: TIMESTEP
7000
ITEM: NUMBER OF ATOMS
16000
ITEM: BOX BOUNDS pp pp pp
9.7661270200999439e-01 1.0122338729798948e+02
9.2961656307227258e-01 1.0127038343692865e+02
5.1209124396639538e-01 1.0168790875603277e+02
ITEM: ATOMS id type x y z
2 1 2.87738 4.9176 2.33909
4 1 8.25521 3.24829 1.74962
6 1 13.1504 2.77692 2.24834
8 1 19.9914 3.75609 2.66292
21 1 16.3612 6.20675 1.19395
10 1 23.8938 3.96663 2.30946
12 1 29.0798 3.2622 1.91835
14 1 33.8569 2.78439 1.90632
20 1 13.2494 7.19094 3.8686
22 1 19.6567 8.47454 2.92566
24 1 24.9229 8.57567 2.35624
28 1 34.2545 7.48488 2.71837
1541 1 1.09538 25.3471 9.94346
16 1 3.84523 8.79782 1.89229
18 1 9.04858 7.86824 2.67843
26 1 29.5993 8.05009 2.78723
30 1 4.19042 13.0409 1.49603
32 1 8.47642 13.5997 3.05047
34 1 13.9303 13.6237 2.93386
36 1 18.8927 12.9667 2.88782
38 1 24.7141 13.716 1.75888
40 1 29.2463 14.1311 1.86453
367 1 6.84022 6.88827 25.5849
44 1 3.77088 17.5196 2.02496
1547 1 16.128 25.8718 10.0988
46 1 8.40535 18.3169 3.0409
48 1 13.5771 18.8555 2.82676
50 1 19.3709 18.9081 2.58562
52 1 23.9833 18.2719 2.21349
54 1 29.9481 18.7385 2.30573
59 1 6.13407 20.1913 0.557485
58 1 3.66822 23.8438 2.34945
60 1 8.35644 23.003 2.36338
62 1 14.2999 23.2736 2.2469
64 1 19.2096 23.5694 2.08893
66 1 24.1214 23.2226 2.05979
68 1 28.5523 22.9544 3.42299
49 1 17.1305 16.7657 0.506346
71 1 2.05301 1.52006 4.53727
72 1 3.89308 3.20311 8.52826
99 1 1.56227 10.9093 5.37611
74 1 8.61555 3.36384 8.48449
76 1 14.0794 3.83561 7.06845
78 1 19.556 3.30373 7.38585
357 1 16.244 1.02204 25.3586
85 1 1.86297 6.24853 5.7045
87 1 6.04327 5.67631 5.23337
89 1 9.83803 4.35161 5.1323
91 1 17.1502 5.54746 5.24991
93 1 22.8349 5.90167 5.53355
95 1 27.0914 5.38298 5.50837
97 1 31.6368 5.56181 5.02837
387 1 21.2447 11.0898 25.3606
101 1 6.63834 10.2652 4.53319
103 1 11.0968 11.0652 5.22853
88 1 9.46401 7.71537 7.30785
90 1 14.3769 8.32471 7.3878
105 1 16.662 10.8349 5.38332
92 1 19.0976 8.06365 7.51719
107 1 21.4534 11.048 5.75196
109 1 27.8369 11.1332 3.88301
111 1 32.267 11.3277 4.47388
98 1 34.0141 8.05487 7.21395
102 1 8.40291 13.3812 7.67774
104 1 14.0415 13.2914 6.65654
108 1 25.0938 13.3959 7.68202
110 1 29.753 12.9985 7.14343
113 1 1.40769 15.0673 4.9426
114 1 4.0402 17.6997 7.77577
115 1 5.7753 15.8826 4.7934
117 1 11.1628 15.7984 4.78516
118 1 13.1745 17.8658 7.4676
119 1 16.0686 16.5672 5.08403
121 1 23.5159 16.2094 5.25324
123 1 27.5484 15.8965 4.80302
125 1 32.3185 15.9729 4.55864
126 1 33.8187 18.3606 8.32672
127 1 1.61989 20.7465 5.19323
129 1 5.45337 20.5728 5.20872
131 1 10.1706 20.7869 5.34257
133 1 16.6115 20.4849 5.34097
135 1 21.0706 21.6862 5.7771
137 1 26.3671 19.8463 4.82338
139 1 31.496 20.7815 5.46353
197 1 1.36773 20.7511 9.82198
344 1 18.7924 22.6086 23.5315
130 1 8.45381 23.7717 7.16801
134 1 18.5263 23.9405 7.85839
239 1 2.50237 10.7111 15.5471
81 1 26.1369 1.06581 3.74029
138 1 29.5487 24.3969 7.8381
1755 1 13.0493 24.8756 25.2995
182 1 33.4244 12.8367 12.3065
1475 1 11.1356 25.8652 4.18659
225 1 1.6313 5.93694 15.2676
80 1 24.2831 3.22354 7.76626
397 1 12.285 15.7783 25.3512
82 1 28.9014 3.37614 8.55193
84 1 33.7175 3.03546 8.34494
73 1 6.59478 1.1388 5.14413
157 1 6.75033 6.32655 10.0941
159 1 11.9947 6.03242 10.198
161 1 16.4306 5.11633 10.1592
163 1 22.0164 5.79206 9.30448
165 1 26.1728 6.46494 10.1664
167 1 30.8261 5.87859 10.6222
86 1 3.87815 8.94179 7.76071
171 1 7.02554 10.5914 10.2667
173 1 11.5622 10.7697 9.80436
175 1 17.1421 11.957 9.68253
177 1 22.311 11.1786 10.1388
94 1 25.3339 8.64948 7.13301
179 1 27.5414 10.7937 10.6891
96 1 29.2415 8.89307 7.26683
181 1 31.9706 10.2554 9.86717
100 1 4.10144 13.1403 7.5477
106 1 19.34 14.4763 6.33804
189 1 16.5815 16.4757 9.84474
191 1 22.6275 15.7146 9.71756
195 1 31.9776 16.0691 10.908
215 1 11.6312 1.05703 15.1638
183 1 1.15337 15.9929 9.6122
185 1 5.75791 15.3077 10.2487
116 1 8.72817 18.0171 7.79606
187 1 11.8121 15.0006 9.2743
120 1 20.0973 18.1613 7.77404
122 1 25.6211 18.0449 8.29375
193 1 27.3298 15.5436 10.1728
124 1 29.2545 17.5523 7.74438
1689 1 21.5388 25.4919 21.746
199 1 6.8578 21.0947 9.45009
201 1 11.6072 21.3342 8.87731
203 1 16.1678 20.1063 9.26159
205 1 21.6114 21.4629 10.3358
207 1 27.2512 21.176 10.0538
209 1 31.8272 21.0257 10.0104
128 1 4.22334 23.6043 7.32066
346 1 24.2505 23.0584 24.9616
132 1 14.9204 23.9847 6.36725
169 1 0.952425 11.0451 10.1693
136 1 24.9506 23.2515 7.73128
1545 1 11.8541 25.8412 8.66591
1681 1 2.09732 25.7185 20.8925
211 1 1.57446 1.49208 16.3847
142 1 3.70146 3.68105 13.0963
144 1 9.40613 3.32101 12.8072
146 1 15.6433 2.93123 13.491
148 1 19.7516 3.73507 12.7957
150 1 23.8312 3.1887 12.6426
152 1 28.2107 3.58586 13.1712
154 1 33.1735 2.62082 12.8835
33 1 11.4737 10.3657 0.809224
229 1 12.3476 6.32003 14.2011
231 1 17.0203 6.36315 15.2353
233 1 21.729 6.03464 15.4502
156 1 3.68355 8.32077 12.4062
158 1 9.1198 8.13435 12.5779
160 1 15.2728 9.22953 11.809
162 1 19.363 8.33757 12.1677
164 1 24.1595 8.66157 12.5308
166 1 29.3484 8.92579 13.6325
168 1 33.7872 8.42843 13.4294
170 1 3.7105 13.0871 12.429
172 1 9.66392 13.2598 12.2258
174 1 13.9936 13.6117 12.7098
176 1 20.3319 12.9264 12.7677
178 1 24.1302 13.2669 12.9447
180 1 28.9928 13.4835 13.5111
1611 1 1.25563 25.8321 15.0766
184 1 4.41021 18.5176 11.759
255 1 6.78444 15.7372 14.6869
186 1 8.86858 19.3503 12.272
188 1 13.3616 18.254 12.1575
190 1 19.5654 19.3098 12.4188
261 1 22.143 16.7827 15.1092
192 1 24.3253 18.3119 12.3532
194 1 29.0314 18.0982 12.4966
269 1 6.75948 21.2391 14.9566
196 1 33.5678 19.3153 13.012
198 1 4.22249 23.0747 12.7936
1613 1 6.74361 25.3095 14.6481
200 1 9.34484 23.258 11.8865
202 1 13.3828 22.8939 11.8025
204 1 18.8227 23.8771 12.4863
206 1 24.1595 23.041 12.2807
208 1 28.984 23.4951 13.0419
210 1 33.9866 23.6405 13.3146
212 1 4.74812 3.58032 17.4082
214 1 9.50463 4.45849 17.3509
216 1 14.4513 4.03143 17.9012
218 1 18.7667 3.59121 18.1634
141 1 1.20317 1.70758 11.1792
220 1 24.3258 2.47208 17.8853
35 1 15.6895 10.2635 1.16945
222 1 28.7722 2.94883 17.616
224 1 32.8439 3.07395 17.6635
227 1 6.12828 5.90308 14.8398
230 1 14.0942 8.56873 17.4915
235 1 25.9896 6.14345 15.5926
237 1 30.8893 6.09647 16.0856
1683 1 6.56258 25.3302 21.1448
226 1 4.53473 8.31733 18.1629
241 1 6.54402 11.0172 15.1697
228 1 9.10734 8.78291 17.1219
243 1 12.2538 10.9912 14.6973
245 1 17.0127 11.0338 14.9064
247 1 21.5972 10.6926 15.7632
249 1 26.221 10.7556 16.0266
251 1 31.4198 11.5665 16.1511
240 1 3.89799 14.4913 16.9573
242 1 9.00305 13.9731 17.9489
244 1 14.5262 12.6838 17.2825
246 1 19.6337 13.8418 17.2099
248 1 24.0209 14.1631 18.0856
250 1 28.7241 13.7488 18.2387
265 1 30.9063 16.4716 15.5696
253 1 2.11842 16.5646 14.0383
254 1 4.56041 18.4462 17.8428
256 1 9.20806 17.8793 18.4694
257 1 11.2502 15.4475 15.2133
258 1 13.8332 18.5326 17.5342
259 1 16.1176 16.1346 15.2768
260 1 19.5891 18.6608 17.1508
263 1 26.2342 16.2534 15.4252
262 1 24.0334 18.9114 18.6689
264 1 28.8672 18.502 18.7966
271 1 11.4457 20.8513 15.5281
273 1 16.177 20.7309 14.936
275 1 21.9397 21.1141 14.8983
277 1 27.0354 21.0516 15.7655
279 1 31.0055 21.1337 15.794
268 1 4.1243 23.1132 17.5195
270 1 8.29078 23.3703 17.8872
1615 1 11.4075 25.1819 15.3679
272 1 14.5509 23.0072 18.2072
1617 1 16.1215 25.3808 14.752
274 1 19.2546 23.3872 17.9824
213 1 6.93136 1.06039 15.5053
1621 1 26.1155 25.6527 15.7658
278 1 28.6258 22.4695 19.3445
42 1 33.7106 13.8819 1.78039
1619 1 22.0986 25.6319 15.5825
283 1 7.38385 1.20266 19.6717
289 1 21.5245 0.930185 20.8814
287 1 16.7876 1.05274 20.796
112 1 34.1764 13.6978 8.12129
413 1 15.8428 21.1087 25.4711
350 1 33.2346 22.9991 25.1008
295 1 2.89758 5.57685 20.0395
297 1 7.79458 5.77453 20.346
299 1 11.9288 5.83255 20.5835
301 1 16.5918 6.14683 20.4857
303 1 21.6959 5.48941 20.2901
305 1 26.4203 5.38594 21.0664
234 1 23.8008 8.2659 18.6883
307 1 31.1804 5.64416 20.3134
309 1 1.53629 11.81 20.7428
311 1 6.61099 11.3413 19.1609
313 1 11.252 10.4555 19.8389
232 1 19.4513 8.40599 17.5618
315 1 16.8229 10.9212 19.76
317 1 21.7551 11.1728 20.5158
319 1 26.3087 11.3107 20.9437
236 1 28.5454 8.34417 18.2397
238 1 33.2126 9.13825 18.7021
321 1 31.0532 11.7141 21.963
252 1 33.1988 13.8032 18.9305
323 1 2.41593 16.2035 20.9727
325 1 6.74977 16.2782 21.356
327 1 11.9198 15.8513 19.8943
329 1 16.9187 16.4342 19.7593
331 1 21.5205 16.2194 20.6515
333 1 26.1923 15.884 20.9121
335 1 30.9659 16.4281 21.3042
266 1 33.5395 18.4235 19.001
337 1 2.39699 20.8676 20.41
339 1 6.6433 20.4053 20.6797
341 1 10.5645 21.0932 20.0919
343 1 17.1111 20.4288 19.6643
345 1 21.3161 20.8177 21.0474
347 1 26.0124 20.8211 21.9325
349 1 31.5112 21.017 21.4398
389 1 25.9869 10.2962 25.0464
1685 1 10.8512 25.0185 19.981
342 1 14.4299 22.4732 21.7755
348 1 28.5229 22.3075 24.2435
276 1 24.2387 23.3326 18.6073
280 1 32.9713 24.433 18.9983
1693 1 30.3051 25.2364 22.6963
282 1 5.35085 3.23717 23.2479
284 1 9.39267 3.71102 23.7275
286 1 14.0795 3.70955 23.3098
288 1 18.5451 3.78418 23.0304
290 1 23.2778 3.18761 24.0526
292 1 28.331 3.87785 23.8309
294 1 33.3882 3.39311 24.1558
365 1 2.29875 5.98465 25.5596
145 1 12.1792 1.53226 10.0427
302 1 18.8277 8.4475 22.7923
296 1 4.56313 8.99957 22.7953
1543 1 5.69447 25.5762 10.4805
298 1 10.0863 8.39405 23.5523
300 1 14.1868 8.2567 22.5791
1687 1 16.9725 25.3836 21.1774
304 1 23.2628 7.46566 23.2566
306 1 28.6302 8.05776 23.503
308 1 33.2293 8.19601 24.431
310 1 5.1551 13.2321 23.1927
312 1 9.91027 13.2676 23.392
314 1 14.4464 13.0269 22.0915
285 1 11.4795 1.18579 20.375
316 1 18.8997 13.2883 23.3835
318 1 23.7139 13.5615 23.6719
320 1 27.7869 14.5439 24.1446
322 1 33.7321 14.1054 23.9625
1691 1 26.3116 25.5965 22.1412
324 1 4.56306 18.6205 23.5141
293 1 30.528 1.72917 21.109
326 1 9.75937 18.5098 23.2737
328 1 14.3763 17.7735 22.7954
330 1 18.7995 17.8603 23.8508
332 1 23.4386 18.0765 24.2815
334 1 28.4907 18.4122 24.26
336 1 32.9926 19.2049 24.8408
267 1 2.20292 20.3736 15.5482
338 1 3.47978 23.4479 24.1411
69 1 31.7578 21.9546 0.913559
340 1 9.00838 23.0175 24.0037
1479 1 22.0002 25.3498 5.35279
1549 1 21.6067 25.5124 9.93802
281 1 2.17802 1.52792 20.9897
83 1 31.6605 1.31227 5.91185
383 1 12.0517 11.1307 25.7309
385 1 16.5551 11.0409 25.782
1753 1 6.64934 25.571 25.8166
7 1 16.5443 1.6472 0.711265
352 1 4.6455 3.74468 27.8956
354 1 9.07267 4.22014 28.5342
356 1 14.4848 3.38429 29.0213
358 1 19.092 3.02974 28.3244
360 1 23.2238 2.79611 28.7678
362 1 28.3213 2.28069 28.8312
364 1 32.2869 2.89296 28.6473
369 1 12.0404 6.12422 26.2863
659 1 1.48508 10.5476 46.5904
373 1 20.4871 5.34105 25.8329
375 1 26.0798 5.95526 26.6753
377 1 30.8693 6.16988 26.8773
366 1 3.48813 9.83013 27.2935
368 1 9.64942 8.87671 28.2225
1897 1 15.8012 25.2604 37.2189
370 1 14.2919 9.07057 28.8401
372 1 19.1807 8.37491 28.689
374 1 23.2026 8.14323 28.4625
573 1 30.6578 1.00982 41.6722
376 1 28.699 8.87257 28.6666
391 1 30.5174 11.5167 25.9621
380 1 4.07526 13.7464 27.1993
382 1 10.0731 13.25 28.5942
384 1 14.4843 13.4846 28.7678
386 1 19.2794 12.9502 28.9229
388 1 23.4915 12.1624 28.4723
390 1 27.29 12.8316 28.4797
394 1 4.21746 17.6483 28.1986
396 1 9.11528 17.9581 28.4777
690 1 7.96683 22.9204 48.9304
1971 1 25.9331 25.6199 41.5641
401 1 21.0879 15.9008 26.4871
403 1 25.9123 15.9204 26.9544
404 1 28.3216 17.8725 30.693
405 1 30.6609 16.14 27.0454
547 1 1.19919 19.8538 36.2242
411 1 11.4495 20.4696 26.2242
563 1 6.18359 1.07721 41.3572
402 1 23.3572 18.1167 29.0319
477 1 1.7821 19.7528 30.4552
417 1 25.8355 20.3384 27.6437
419 1 30.6163 20.3387 27.9487
423 1 6.45504 1.05721 30.8912
408 1 3.86865 22.5035 28.1461
410 1 9.88414 23.3327 28.5603
412 1 13.8413 23.5681 29.015
414 1 18.8255 22.8399 28.6782
416 1 23.2906 23.5986 29.5603
418 1 28.8187 23.581 29.21
420 1 33.4878 24.5332 29.9083
421 1 1.7227 1.31409 30.1695
435 1 1.56468 6.34779 30.2594
437 1 5.54831 6.85453 30.1736
439 1 12.2184 6.42904 31.4393
441 1 16.9604 5.83614 31.1422
443 1 20.8579 5.49621 31.3638
445 1 25.9959 5.73104 31.2479
447 1 30.0859 5.34709 31.2907
449 1 2.31931 11.4341 30.9035
451 1 6.28213 11.1785 30.53
453 1 12.2127 10.8345 31.5687
455 1 16.6872 10.686 32.0972
457 1 20.9735 10.4265 31.9398
459 1 25.6739 10.5848 31.9608
461 1 30.4125 10.9734 32.147
378 1 33.2802 8.356 29.3937
463 1 1.76477 15.3258 31.0183
465 1 7.1159 15.4853 30.8288
452 1 9.38398 12.7603 33.7651
471 1 21.768 15.1937 31.4482
392 1 32.9163 12.845 29.5061
464 1 3.83913 18.4486 34.0103
467 1 11.8302 16.2395 31.4725
398 1 13.7468 18.4792 28.8696
400 1 18.9335 18.0911 29.3601
469 1 15.9618 15.3749 31.7639
473 1 25.6693 15.2148 31.4177
475 1 30.05 14.7845 32.5285
406 1 32.9172 17.6175 30.4684
1891 1 1.7389 25.6884 35.8028
479 1 6.21109 20.8842 30.6702
481 1 11.0856 20.3081 30.9731
483 1 16.843 20.5309 32.0909
485 1 21.0006 20.4649 31.9147
487 1 26.3916 21.2312 32.2702
489 1 30.9308 21.4809 32.204
1821 1 1.99361 25.6303 29.8555
478 1 3.37625 23.1394 33.6672
1823 1 6.30116 25.4682 30.5759
1827 1 16.6417 25.2559 31.067
491 1 1.80953 0.958179 36.1649
422 1 3.61344 4.03939 33.3789
493 1 6.4474 1.41669 35.5772
424 1 9.70203 3.47076 32.9801
495 1 11.8932 1.59205 36.6836
426 1 14.3008 2.9618 33.7964
428 1 18.8462 2.96519 34.4294
430 1 23.6099 3.01314 34.1565
432 1 27.4635 3.28101 33.8301
641 1 25.5945 1.16676 47.8895
501 1 25.7888 1.15927 37.1538
415 1 21.5348 20.5745 26.4709
436 1 4.09209 8.5413 33.7727
507 1 6.94535 5.96592 35.9975
509 1 11.4075 5.84644 35.9928
440 1 15.1096 7.39217 33.9639
442 1 18.7773 6.96904 34.3207
444 1 23.6146 7.59233 34.6238
519 1 1.53954 10.9698 36.2237
521 1 7.09265 10.6831 35.8596
438 1 9.12081 8.30951 32.8948
523 1 11.8263 10.1508 36.1122
525 1 16.4294 10.625 36.8675
527 1 21.0545 10.4038 36.7199
529 1 25.4144 10.1362 37.4812
446 1 28.2442 7.83237 34.8044
448 1 33.2919 7.73889 33.9838
450 1 4.70973 13.1962 33.5819
454 1 14.5572 13.6315 34.9245
456 1 19.1292 13.5278 34.8559
458 1 23.6671 13.4004 34.4671
460 1 27.8679 12.4772 34.6701
462 1 33.6526 14.1632 33.7689
751 1 20.6082 16.4345 50.7071
535 1 7.11401 15.3965 35.5794
466 1 8.08736 18.535 32.6574
468 1 14.0643 18.1255 33.7746
470 1 18.5876 17.4217 34.1395
472 1 23.3981 17.9457 33.9998
474 1 28.7499 17.9095 34.3956
476 1 33.4819 18.1968 34.3088
425 1 11.7869 1.02881 30.3656
549 1 6.08364 20.3471 36.4432
551 1 10.7815 20.9331 35.7609
553 1 16.6706 20.5586 36.8233
555 1 21.2946 20.3183 36.2577
557 1 26.0043 20.4834 37.0283
559 1 31.0117 21.3032 36.7732
694 1 18.1321 23.3642 48.9243
480 1 8.19287 23.2045 33.6094
482 1 14 22.5927 33.803
484 1 18.7765 22.9689 34.6132
486 1 23.231 23.7558 34.2021
488 1 27.8978 23.4242 35.0166
490 1 33.7205 24.4876 34.7646
492 1 3.6531 3.9947 38.6805
494 1 8.32754 3.74841 38.9565
496 1 12.9254 4.3066 39.331
498 1 19.1334 2.71408 40.4256
1831 1 26.5126 25.7767 31.2539
500 1 23.2 3.56474 40.3288
1961 1 1.26836 25.1429 41.3726
502 1 28.122 3.29083 38.5698
504 1 33.1018 3.64253 38.8433
511 1 16.3486 4.79717 37.6995
513 1 20.2905 5.91323 37.7933
514 1 23.0869 8.11977 40.2241
515 1 25.2917 5.7706 37.6284
517 1 30.867 5.09525 36.0654
518 1 33.3585 8.14529 39.5582
506 1 4.15327 7.66683 38.0834
508 1 8.74601 8.4207 39.2669
510 1 13.5102 8.34066 39.2609
512 1 17.9446 8.47155 39.8558
531 1 31.6292 10.6314 36.2661
516 1 29.192 8.72148 38.4647
520 1 4.49096 13.5449 38.207
522 1 8.98321 13.0453 38.3855
524 1 13.5982 13.1363 39.0584
526 1 18.5345 13.0667 39.4576
528 1 23.1775 12.7686 39.9833
530 1 27.86 12.4171 39.4073
603 1 1.14677 15.523 40.6874
534 1 4.01978 17.9597 38.5759
537 1 11.4391 16.2343 35.9627
536 1 8.6689 17.6707 39.3448
538 1 12.4228 18.9012 38.2212
539 1 15.8714 16.0625 37.7464
541 1 21.0969 15.5311 37.7251
543 1 25.8717 15.7344 37.3286
545 1 31.1284 14.9503 36.867
546 1 33.3554 17.5842 38.3997
2109 1 21.082 25.4514 50.8999
540 1 18.9706 17.7228 40.2046
542 1 24.0866 18.8855 39.7629
544 1 28.9254 18.5526 39.2869
548 1 3.26426 23.7131 38.148
550 1 7.77534 23.5085 38.2263
552 1 13.0211 23.2205 38.1949
554 1 18.9885 22.5003 39.6269
645 1 1.31217 6.10706 46.7107
556 1 23.549 23.3098 38.6173
558 1 28.3517 23.375 39.6288
560 1 33.6767 24.1012 39.4901
399 1 16.4891 15.8457 26.4897
562 1 3.53548 3.49186 43.3488
1895 1 10.233 25.7787 36.4946
565 1 10.6149 1.03289 41.9549
567 1 14.9423 1.59596 42.0536
749 1 16.1171 14.9641 50.3112
1967 1 16.5243 25.7166 41.8553
574 1 33.0508 3.47388 43.6531
575 1 1.32999 7.0063 40.857
577 1 6.32368 6.49776 41.9601
579 1 11.0089 5.80491 42.2323
581 1 15.6201 5.43821 42.1376
583 1 20.0968 6.44922 43.1053
585 1 26.7368 5.79782 41.8831
587 1 30.6681 5.63312 41.6188
2037 1 15.3829 25.2107 45.784
589 1 1.05794 11.6139 40.2133
576 1 3.76364 8.50833 43.5668
591 1 5.94565 10.8542 41.1411
578 1 8.56758 9.0962 44.4391
593 1 11.6323 11.6936 42.0122
595 1 16.2679 11.04 41.8682
597 1 20.9857 10.7647 42.3728
599 1 25.5521 10.9985 42.3532
586 1 29.0401 9.57719 43.0564
601 1 31.6489 12.3144 40.3442
596 1 18.3751 12.5869 44.9166
688 1 3.01088 22.9833 49.2123
604 1 3.30679 18.0357 43.0282
605 1 6.26484 15.4864 41.5143
607 1 11.0137 15.8517 41.7298
609 1 15.9272 15.2847 42.8345
610 1 18.6871 18.5588 43.9281
611 1 21.1975 15.6831 42.4944
613 1 25.7722 15.6769 41.3383
615 1 30.5203 15.682 41.4356
616 1 34.2648 17.56 43.6966
619 1 5.41443 20.881 41.1687
621 1 10.1564 20.9789 40.9518
623 1 15.6918 21.0074 41.0645
625 1 21.3546 20.4671 41.8986
627 1 25.8459 21.6177 42.1562
629 1 31.3515 20.4213 41.3864
731 1 6.42869 11.7081 50.8732
618 1 3.43708 22.5658 44.0001
1963 1 5.81954 24.9685 41.0045
1965 1 10.6607 25.618 41.12
692 1 13.5558 23.169 49.4679
628 1 28.9281 23.1261 44.078
630 1 33.4357 23.6622 43.4005
564 1 8.01857 3.20102 44.5972
633 1 5.36927 2.05165 47.5198
566 1 13.1088 2.77433 45.0473
568 1 17.8403 2.469 44.4765
570 1 22.9096 3.04245 44.7079
755 1 31.8648 16.1975 50.4096
572 1 28.9079 2.68522 44.8667
647 1 5.27005 6.39736 46.4957
649 1 10.566 6.41358 47.0792
651 1 15.4023 5.69087 47.6772
653 1 20.0017 5.74295 47.0422
655 1 26.39 5.53755 46.3543
657 1 30.8965 6.76319 46.3514
381 1 7.2246 11.1173 26.2911
661 1 6.0075 10.3215 46.8196
580 1 13.1965 8.44634 44.1835
582 1 18.2919 8.84585 45.8181
667 1 21.9092 10.1239 46.5207
584 1 23.5851 7.28623 44.6011
669 1 26.3148 10.136 46.8147
671 1 30.8861 10.5571 46.7492
590 1 3.34776 13.248 44.1474
592 1 8.1026 13.4882 44.4862
594 1 13.6506 12.6109 45.0699
598 1 23.4358 13.524 44.9937
600 1 28.397 13.8635 44.4351
602 1 33.4718 12.9014 43.7119
606 1 8.42356 18.7993 43.9468
675 1 5.94854 16.7255 45.9635
677 1 10.9439 16.9801 46.3333
679 1 15.4691 16.5868 46.5983
681 1 20.3359 16.3307 46.9215
612 1 23.259 18.2112 44.261
683 1 26.3172 16.3719 46.4925
614 1 28.1289 18.6153 43.9159
685 1 31.327 16.0526 45.8519
689 1 4.74957 20.3169 46.7192
691 1 11.2215 20.9055 46.3115
608 1 13.2575 18.7021 43.7279
693 1 15.5585 21.0787 45.9023
695 1 21.6385 20.8091 46.8308
697 1 26.2507 21.6399 46.9263
699 1 31.8981 20.6806 46.0987
620 1 8.10993 22.8157 44.7094
698 1 29.3664 23.5239 48.831
2035 1 10.1942 25.3995 46.9936
686 1 33.9853 18.5556 48.2962
622 1 12.8448 23.4114 43.6491
624 1 18.3254 23.1844 44.2792
626 1 22.868 23.5693 44.2256
371 1 16.44 6.22631 26.1059
700 1 34.0192 23.2758 48.12
632 1 2.75145 3.18272 49.8542
634 1 8.4242 3.18054 49.5889
636 1 12.573 3.17567 49.7693
696 1 23.9897 24.1376 48.8384
638 1 18.2758 3.4983 49.4245
640 1 23.0264 3.76204 50.3556
642 1 30.0012 3.52203 48.496
644 1 33.8254 3.33929 49.7063
646 1 3.82723 8.7356 49.5088
648 1 8.26152 7.59816 49.9874
654 1 23.9357 7.82335 48.9138
588 1 33.6501 8.2756 44.14
658 1 33.9061 7.75117 48.9446
663 1 10.6762 10.8578 47.4286
665 1 15.2411 10.2345 47.6857
650 1 12.6394 7.79246 50.5321
652 1 18.0636 8.12966 50.4513
656 1 28.8906 8.40449 49.0829
741 1 31.7233 10.461 50.7417
660 1 3.32365 13.7727 48.8293
662 1 8.31537 14.7594 48.599
664 1 12.9407 13.9334 48.9482
666 1 19.5504 12.1892 48.7924
668 1 24.0488 13.5744 48.9283
670 1 28.6898 13.419 48.4143
672 1 33.255 13.3413 48.4345
674 1 2.64825 18.2553 49.2576
676 1 7.79024 18.822 48.7675
678 1 13.5476 18.779 49.2508
682 1 24.5557 18.1532 49.6065
684 1 29.2652 18.8128 49.2635
1973 1 30.4475 25.982 41.1025
680 1 18.3464 18.9195 48.9826
1825 1 11.7074 25.1681 32.0386
2033 1 5.05981 25.553 46.2502
1763 1 30.7489 25.692 26.5014
571 1 25.8011 1.06865 41.9601
1757 1 16.9229 25.5016 25.9045
409 1 6.75552 20.9033 26.0573
2113 1 31.6796 25.7768 50.9906
767 1 26.1133 21.4481 50.9092
355 1 11.7579 1.3534 25.7918
407 1 1.74196 19.6076 26.3321
395 1 7.60871 15.74 25.9932
714 1 33.5421 3.08997 53.5132
1079 1 1.22863 10.8711 76.2066
706 1 13.3437 2.88167 55.1766
853 1 31.7056 1.0519 61.3463
708 1 17.7927 3.80173 55.1199
710 1 23.9521 3.14427 54.5289
712 1 29.5378 2.71054 52.8999
769 1 31.4592 20.8858 51.4623
717 1 5.89841 5.72662 52.2887
719 1 10.7522 5.34446 53.3484
721 1 15.3512 5.63928 52.3468
723 1 19.9205 5.26217 52.3067
724 1 23.9322 7.40628 53.838
725 1 26.6982 5.55963 51.8392
773 1 5.6016 1.02369 58.3038
716 1 3.46639 9.12844 54.1728
843 1 5.08133 1.63549 62.6678
733 1 10.5277 11.2185 52.006
720 1 13.69 8.87506 54.1096
735 1 15.8591 11.25 51.6651
722 1 18.0752 8.59701 54.9397
737 1 21.3091 9.91564 51.9463
739 1 26.2051 10.6098 51.4018
726 1 29.2248 8.54309 54.1763
730 1 2.97353 13.4925 53.5109
732 1 7.26906 13.5829 54.2406
734 1 13.3946 13.4668 53.7654
738 1 23.5615 13.824 53.4351
740 1 29.8454 13.0402 52.9803
987 1 16.4648 0.965993 72.226
745 1 6.16658 16.4258 51.6193
747 1 10.1271 16.0145 52.0875
989 1 20.8644 1.7629 70.5524
2317 1 16.5611 25.7893 65.3552
752 1 23.5621 17.679 53.4725
753 1 26.9035 15.6423 51.2941
744 1 2.6501 18.6896 54.1648
1073 1 22.1506 6.87031 76.013
883 1 1.1826 16.2122 63.0686
746 1 7.2131 17.9267 55.1856
761 1 10.3519 20.6829 52.1547
763 1 15.8348 20.9456 51.9429
765 1 21.4963 20.9701 51.3834
854 1 34.1704 3.65924 63.4138
754 1 29.9437 18.2886 54.2231
1065 1 1.35895 6.02362 76.3195
758 1 2.93019 22.7784 54.8014
760 1 7.65432 23.214 54.4891
2183 1 31.7484 25.7023 55.4422
762 1 12.4313 23.341 53.9815
764 1 18.8814 23.7812 53.4546
995 1 1.19583 6.62637 71.9845
2175 1 9.87792 25.9933 56.5987
766 1 24.3335 23.7298 53.4403
768 1 28.8124 23.3169 53.5177
702 1 2.77729 3.33786 55.1883
2103 1 4.95215 25.4821 51.4616
704 1 7.51933 3.96849 55.3825
1022 1 34.1354 14.3538 72.8544
1028 1 13.9499 19.6753 72.9716
787 1 4.51179 6.84812 57.2919
789 1 11.0078 6.29429 56.9486
791 1 15.1725 6.86255 57.0104
793 1 21.4754 5.39978 56.4211
795 1 27.4599 5.43715 56.3354
794 1 24.5248 8.2288 58.1456
797 1 31.9166 5.65627 55.862
1048 1 30.2124 24.3842 73.8197
801 1 4.93099 11.3717 57.0392
718 1 7.36373 8.73843 54.5373
803 1 10.6222 11.0076 56.4316
805 1 15.4015 11.5015 56.716
807 1 21.8982 10.4519 56.099
809 1 26.5186 11.0287 55.3435
811 1 32.3524 11.0295 56.4448
736 1 18.9152 12.994 53.4984
808 1 23.5125 13.7323 57.7153
810 1 28.9306 13.7807 58.5409
815 1 4.59481 15.9314 57.3529
817 1 11.1775 15.5122 56.3257
748 1 13.8874 18.1668 53.8768
750 1 18.2075 18.2713 53.0231
819 1 16.7175 15.5051 56.4304
821 1 20.6553 16.5776 56.0221
823 1 27.2704 15.8905 55.7733
825 1 31.7175 15.509 56.1489
826 1 33.8496 18.0264 58.3675
829 1 5.03094 20.483 57.0562
831 1 10.1166 20.1601 56.8894
833 1 16.1479 21.577 55.7988
835 1 21.3237 20.5981 55.5529
837 1 26.6388 20.3082 55.792
839 1 31.9804 21.5955 56.0887
896 1 33.4691 18.5705 63.5549
1037 1 0.987141 20.8044 72.1141
2179 1 21.8029 25.8436 55.925
838 1 28.8508 23.8674 58.6929
1111 1 11.4421 22.4469 75.9267
772 1 2.84635 4.28725 60.4496
774 1 7.3782 4.25176 59.5861
776 1 13.4136 3.17106 59.2882
778 1 18.186 3.81993 59.2236
849 1 21.451 1.15286 61.3443
780 1 24.2459 3.7966 58.5725
851 1 26.3064 1.21441 61.8052
782 1 29.3587 2.52428 58.2539
859 1 11.0444 6.19777 61.63
861 1 15.0938 6.5492 61.8002
863 1 21.6294 6.47632 61.1806
865 1 27.3041 5.63999 60.9652
867 1 31.9738 5.60162 60.4464
786 1 2.48133 8.50242 59.9829
788 1 7.97665 8.04732 58.7883
873 1 10.2588 11.6723 60.9041
790 1 12.882 9.53936 59.3811
792 1 18.6707 8.50508 58.7223
875 1 16.8142 11.1179 61.3743
877 1 21.8978 10.615 61.2641
879 1 26.3443 11.8027 60.6248
796 1 28.9528 8.97967 58.821
881 1 32.0982 10.81 60.4214
800 1 2.88707 13.274 60.3132
802 1 7.40032 13.6888 58.4883
804 1 14.0052 14.0221 58.9041
806 1 19.2979 13.4186 58.7716
2105 1 10.2486 25.2901 51.3432
814 1 2.33033 18.937 60.1959
816 1 8.18221 18.2557 59.7316
887 1 10.9827 16.1773 61.6358
818 1 13.8476 18.6274 58.5396
889 1 17.156 16.0853 61.0152
891 1 21.3219 16.6847 61.0401
822 1 24.6888 17.8717 57.9632
824 1 28.7981 18.4163 58.2956
893 1 26.6922 15.7613 60.5541
895 1 31.665 16.4357 61.1551
901 1 11.8151 20.6899 61.2199
903 1 17.035 22.2662 61.295
820 1 19.027 18.7385 58.6769
905 1 21.6723 20.5214 60.4975
907 1 26.319 21.3418 60.8587
909 1 31.9864 21.1317 60.988
828 1 2.23745 23.0569 59.46
830 1 8.60863 23.0706 59.0049
2243 1 4.74179 25.1625 61.8234
832 1 13.2601 23.3193 58.6664
834 1 18.9263 23.2959 58.0111
836 1 23.7105 23.2441 58.5729
967 1 1.13949 20.6951 68.0679
953 1 1.16416 15.9727 67.4411
844 1 8.06395 4.17838 64.5673
845 1 9.81705 1.58075 61.6916
846 1 13.8343 3.38342 63.8416
848 1 18.7153 4.12369 63.8627
850 1 24.3797 3.80384 63.8941
852 1 29.1459 4.21699 63.8288
842 1 3.21852 4.65442 65.092
857 1 6.26909 6.96857 62.2081
864 1 25.3898 8.28789 63.0684
856 1 3.32007 9.15438 64.5403
871 1 5.87115 11.3943 61.5364
858 1 8.84726 8.85235 64.3402
860 1 12.8074 9.95011 63.3289
862 1 19.2683 8.71234 63.456
866 1 29.1354 8.73584 62.7829
870 1 3.5074 13.2179 64.9386
872 1 7.9876 14.0947 64.4682
874 1 13.8452 13.8297 63.5374
876 1 19.5953 13.4933 63.4884
878 1 24.3808 14.5581 63.6513
949 1 27.3599 11.9282 65.4515
880 1 29.6801 12.6826 62.6994
2323 1 32.324 25.9277 66.2583
884 1 3.25373 19.3132 64.3505
885 1 5.68682 16.1701 61.9679
888 1 14.9258 18.509 62.8429
892 1 24.1485 18.9603 62.9568
965 1 30.9617 16.2012 65.104
899 1 5.79219 20.6186 61.8966
886 1 8.83015 18.8468 64.355
890 1 19.4999 19.4361 63.5875
973 1 15.8894 21.0807 65.6954
975 1 21.6619 21.6522 65.8315
977 1 26.4055 21.1684 65.2883
894 1 28.9405 19.3437 62.9689
1046 1 23.2051 25.3376 73.4604
898 1 1.63386 23.5204 64.1486
900 1 8.78942 22.9238 64.6065
902 1 13.3451 23.7731 63.1599
904 1 19.4531 24.1316 63.4306
1008 1 34.053 8.98862 74.2553
906 1 23.3703 24.1408 63.2273
1044 1 19.1656 23.9753 72.9539
908 1 29.0367 23.5451 63.9176
727 1 31.1526 6.28681 51.1511
868 1 34.2599 8.98082 63.1332
1026 1 9.23034 19.2386 74.0205
916 1 14.5314 2.85556 68.6698
917 1 16.8861 1.1871 66.0276
918 1 18.8888 4.36853 68.7477
919 1 21.1458 1.24732 66.0562
784 1 34.1323 2.30198 58.0593
920 1 24.3842 3.78726 68.3149
923 1 32.2918 1.27494 65.8207
927 1 5.94589 6.64711 66.9585
929 1 11.5211 5.73831 66.3862
931 1 15.9457 5.73414 66.3384
933 1 21.9546 6.46733 65.9428
935 1 26.7214 6.25759 66.1156
937 1 31.6987 6.89063 65.9598
941 1 6.4075 11.1867 67.3848
943 1 11.6239 11.927 66.5787
928 1 9.35391 9.23302 68.9284
930 1 14.2819 8.80627 68.6768
945 1 16.5961 11.8674 65.8629
932 1 18.5039 8.29523 68.2278
947 1 21.1293 11.1677 65.9314
934 1 24.886 9.64976 67.9873
936 1 29.2164 9.26904 68.6016
951 1 32.3546 11.9408 66.1596
942 1 8.79848 13.8819 68.7776
944 1 15.1715 13.4174 69.3798
946 1 19.2883 14.135 68.3439
948 1 23.9386 13.9659 67.7962
950 1 30.1474 14.1304 68.4792
1117 1 27.2551 21.3832 75.273
955 1 5.60605 16.6089 65.882
957 1 12.183 16.449 65.968
956 1 9.19117 18.344 68.9932
959 1 16.7385 16.5212 66.1225
961 1 21.2617 16.894 66.2358
963 1 27.0866 16.6848 65.5846
964 1 29.0997 19.6628 67.8043
1113 1 17.0962 21.1281 75.8209
969 1 5.58658 20.6648 67.2077
971 1 12.1203 20.3115 66.1076
958 1 13.9973 17.8548 69.2833
960 1 19.543 20.2827 68.8362
962 1 24.0802 19.3389 68.0529
979 1 31.8432 21.7034 65.6676
2313 1 5.46379 25.1365 65.9283
970 1 8.32971 24.0708 68.4953
972 1 13.1857 24.2933 67.8723
974 1 19.2077 24.2858 68.2038
976 1 24.5295 24.2201 68.0539
978 1 28.4213 24.008 68.4891
912 1 3.87268 4.29527 69.5442
1042 1 14.5277 24.3562 74.0776
2253 1 31.9965 25.486 60.6159
914 1 9.02488 4.10475 69.2627
991 1 26.8449 1.00389 71.1386
922 1 29.5596 4.04612 68.395
993 1 31.8697 1.49162 71.5544
915 1 11.0017 1.48984 67.0774
997 1 6.29062 6.55076 71.6899
999 1 12.059 6.08145 71.0752
1001 1 16.106 5.59192 71.1847
1003 1 21.6892 6.76177 69.9837
1005 1 27.2234 5.97621 71.2204
1007 1 31.8604 6.6083 70.9776
926 1 3.6242 9.03934 69.981
1011 1 7.56634 11.0755 71.8199
1015 1 17.6038 10.8454 71.3853
1017 1 22.1235 11.4875 70.8142
1019 1 26.7789 12.5533 70.0187
1006 1 29.306 9.19225 73.1192
1021 1 31.8441 11.2615 71.0032
940 1 4.2365 13.717 69.3983
1013 1 11.9202 11.1598 71.2342
954 1 3.46374 18.2245 69.6956
1025 1 6.98432 16.631 71.888
1027 1 11.6146 15.8365 71.6569
1029 1 17.6133 17.2331 70.9829
1031 1 22.2653 16.9349 70.4293
1033 1 26.918 16.7158 70.2375
1035 1 31.5716 16.9471 71.3924
952 1 34.2999 14.2777 68.1385
1039 1 6.88189 20.8166 71.4443
1041 1 11.4661 21.542 70.3786
1043 1 16.188 21.6464 70.2487
1045 1 22.4576 22.0384 70.8088
1047 1 26.2469 21.4523 70.7083
1049 1 32.3358 22.1706 70.229
968 1 3.7736 23.1723 69.9225
1097 1 12.8157 17.0335 76.0587
938 1 34.0962 8.79912 68.7698
1040 1 8.71528 23.7456 73.2628
1038 1 4.28779 23.2616 74.3741
982 1 4.12975 3.89125 74.4204
1053 1 6.85281 1.47378 76.0819
984 1 9.24098 3.81281 73.8249
986 1 13.1719 2.78921 73.0301
988 1 19.1097 4.35473 73.2798
1105 1 32.4767 16.1663 75.6301
1059 1 21.5184 1.44399 75.7433
990 1 23.8989 4.32312 73.0506
759 1 5.26739 20.7483 52.2492
992 1 28.868 3.20632 73.6193
1067 1 7.34782 6.36501 76.2723
1115 1 21.1821 22.1305 75.3849
2173 1 5.05113 25.9134 57.1669
703 1 5.42803 1.11963 52.2027
1075 1 26.8518 6.83377 75.8928
1077 1 31.7601 6.24275 75.6317
996 1 4.49348 8.74248 74.7679
981 1 1.5057 1.97008 71.8755
998 1 9.68467 8.56383 74.2124
913 1 6.26324 1.41627 66.6715
1085 1 16.8413 10.8432 76.1048
1000 1 14.3955 8.82329 73.4674
1002 1 19.7826 8.3335 73.4399
1087 1 22.1004 11.988 75.5449
1004 1 24.1776 9.08832 72.9368
1034 1 31.284 20.0976 73.51
1091 1 31.6305 12.2388 75.5918
1010 1 4.25354 13.4361 73.9893
1012 1 10.5705 13.4067 74.3437
1014 1 14.2028 13.7766 73.3773
1016 1 19.2824 14.3094 73.0799
1018 1 24.5317 14.5651 73.3698
1089 1 26.8435 11.5634 75.9499
1020 1 29.6468 13.7631 72.7851
1032 1 24.333 19.1258 73.9828
1024 1 3.91812 18.5275 74.2689