ITEM: TIMESTEP
80000
ITEM: NUMBER OF ATOMS
16000
ITEM: BOX BOUNDS pp pp pp
3.0488856373108320e-01 1.0189511143627145e+02
5.7614688804184055e+00 9.6438531119579949e+01
-5.1784889562441379e+00 1.0737848895624408e+02
ITEM: ATOMS id type x y z
6 1 15.3164 8.41071 -4.73673
8 1 19.8765 7.44273 -3.85432
10 1 24.373 7.8548 -3.70568
12 1 28.7635 8.09403 -2.4803
14 1 32.8801 8.14411 -2.23865
85 1 3.65925 9.65054 -3.29975
87 1 7.79983 10.1503 -2.17636
20 1 15.2353 12.3571 -4.86948
22 1 19.3964 12.1524 -4.12858
24 1 23.6937 12.3638 -3.06691
26 1 28.3114 12.9693 -2.39318
28 1 32.487 12.6461 -1.97041
99 1 3.59548 14.4377 -3.47353
101 1 8.12072 14.768 -2.21203
38 1 24.3846 16.849 -3.34511
40 1 28.3493 16.96 -2.3925
42 1 32.9617 17.1492 -2.21555
113 1 3.54166 18.767 -2.92164
115 1 7.81237 18.7643 -3.03993
10956 1 0.56655 12.6656 5.84228
5757 1 34.1467 14.6505 7.3408
34 1 15.0929 16.9901 -4.35096
36 1 19.305 16.6802 -3.85559
127 1 3.04647 23.9438 -2.933
129 1 7.63642 23.3118 -2.38206
131 1 11.9049 23.8972 -1.74299
48 1 14.9154 21.5865 -4.1873
50 1 19.6937 21.4164 -3.85412
52 1 23.8386 21.358 -3.38023
54 1 28.3802 20.9587 -2.62429
56 1 33.2971 21.2661 -2.4207
213 1 6.9371 6.24839 9.79378
18 1 10.4685 12.9077 -4.92347
62 1 15.1682 25.9015 -4.34987
64 1 19.702 26.0301 -4.14018
66 1 23.9353 26.021 -3.67043
68 1 28.3929 25.7426 -2.94328
70 1 33.0767 25.7155 -2.27929
10878 1 0.932311 7.6257 -0.0805774
72 1 5.56718 7.34405 0.545472
74 1 10.045 7.61593 1.08429
76 1 14.7581 7.62008 1.61962
1623 1 28.9243 28.3879 13.0193
10943 1 0.380409 8.06311 5.40424
10891 1 1.13404 12.2915 -0.382176
86 1 5.24309 12.0334 0.0290016
88 1 10.2019 12.3602 0.936883
89 1 12.6206 10.3403 -1.54418
90 1 14.0467 12.3939 1.57064
91 1 16.9445 9.96694 -1.1257
93 1 21.6199 9.87012 -0.578386
95 1 25.8732 9.8886 0.162325
97 1 30.413 9.74241 0.968476
1753 1 6.27583 28.3791 22.6812
103 1 12.1765 14.8045 -1.95471
105 1 16.544 14.6 -0.902869
107 1 21.0693 14.6595 -0.659475
109 1 25.8134 14.8495 -0.17585
111 1 30.2974 14.0851 0.72243
100 1 5.16901 16.3652 0.244366
102 1 9.85803 17.0221 1.34789
117 1 12.1673 19.2074 -1.73974
119 1 16.8611 19.0766 -0.758337
121 1 21.4213 18.7281 -0.349647
123 1 25.8885 18.7568 -0.163845
125 1 30.6971 18.8593 0.768756
10917 1 0.860599 21.297 -0.0198928
114 1 5.55872 21.1209 0.0157096
116 1 9.52508 21.4478 1.47219
118 1 14.3912 21.4723 1.68953
133 1 17.3389 23.8576 -0.849399
135 1 21.6801 23.5146 -0.335846
137 1 25.8136 23.4891 0.294693
139 1 30.5718 23.5395 0.611124
10930 1 0.854759 25.5009 -0.55828
128 1 5.03204 24.8391 0.656558
130 1 9.54841 25.9042 0.864456
132 1 14.2289 25.9752 1.01747
1479 1 22.0858 28.0591 -0.68038
10904 1 0.502384 16.616 -0.556765
5835 1 34.1372 19.1747 13.8884
351 1 1.03187 6.01236 21.4307
145 1 12.3022 5.97364 4.65734
292 1 26.0934 8.20809 22.0496
78 1 19.1097 7.92326 2.51435
80 1 23.4722 7.81809 3.39966
82 1 27.177 7.8569 3.69127
84 1 32.2633 7.55553 4.57479
155 1 2.9342 9.99855 3.35002
157 1 7.34512 10.0123 3.75041
159 1 11.7489 9.89941 4.69906
92 1 19.1847 12.3826 2.1782
161 1 16.6533 10.2652 5.00732
94 1 23.0571 12.4886 2.91261
96 1 27.5373 12.4491 3.17406
98 1 31.8054 12.0644 3.81297
169 1 2.41034 14.8138 2.17087
171 1 7.19957 13.981 3.84808
173 1 11.5732 14.8077 4.71753
175 1 16.1067 14.5432 5.21785
112 1 32.2559 17.0474 3.65213
183 1 2.86161 18.8855 2.54164
185 1 7.05515 18.514 3.63453
104 1 13.7034 17.0075 2.16277
187 1 11.5256 19.5158 4.96744
106 1 18.1978 17.0183 2.4675
189 1 16.2003 19.1341 5.14278
108 1 22.9441 17.1317 2.94178
110 1 27.5984 17.0397 3.299
197 1 2.4713 23.8034 3.30756
199 1 7.20091 23.4803 3.71554
201 1 11.8467 24.0201 4.60224
203 1 16.4476 23.8638 5.22884
120 1 19.0692 21.5694 2.25742
122 1 23.4596 21.0363 3.25032
124 1 28.2347 20.9325 3.19413
126 1 32.6491 21.4985 4.56093
1691 1 24.1973 28.1499 19.0356
5796 1 34.0476 5.763 13.5958
348 1 25.9696 25.7541 22.6059
134 1 18.8431 26.2541 2.07857
136 1 23.5661 25.6406 2.98098
138 1 28.1219 25.5079 3.18199
140 1 32.5322 26.1414 3.99032
142 1 4.95079 7.74032 6.72469
144 1 9.6581 7.67602 7.39785
146 1 14.2734 7.73136 8.29101
148 1 18.7533 8.18579 8.8395
60 1 10.551 26.0977 -5.00735
156 1 5.05893 12.7557 6.86992
158 1 9.58877 12.1732 7.24166
160 1 14.2396 12.2392 7.71766
162 1 18.4127 12.7242 8.68947
163 1 21.3962 10.4286 5.65706
165 1 25.3233 10.0285 6.23787
167 1 29.7422 9.94029 7.06121
172 1 8.65069 16.9472 6.96144
174 1 14.0473 17.5561 7.85812
177 1 20.8368 15.0346 5.55811
179 1 25.3262 15.1703 5.85385
181 1 29.4964 14.7051 6.70988
10969 1 0.508966 17.3357 5.46025
170 1 4.75143 16.7167 6.39756
191 1 20.5851 19.1336 5.86419
193 1 25.2825 19.2354 6.56076
195 1 29.7487 19.3068 6.87515
184 1 4.74349 21.2785 6.24654
186 1 8.60786 21.6383 6.86519
188 1 13.7189 21.4769 8.19162
190 1 18.03 21.364 8.67952
205 1 20.89 23.5729 6.00615
207 1 26.12 23.7983 6.09412
209 1 30.6019 23.4498 7.18995
5809 1 33.463 10.5585 14.2746
1543 1 7.21085 28.2312 3.98313
198 1 4.2973 25.8319 6.74617
200 1 8.93316 26.2632 7.50214
202 1 13.3542 25.9141 7.66245
204 1 18.6707 26.1217 8.60553
1551 1 25.6378 28.3316 6.0715
346 1 21.7639 26.0703 21.5988
1549 1 20.8055 28.1891 5.98956
150 1 22.7492 7.66179 9.38172
152 1 27.824 7.70829 9.97371
154 1 31.9811 8.26203 10.8467
225 1 2.87812 10.5484 9.84233
227 1 6.83522 10.0321 10.1365
229 1 11.5657 10.4416 10.9265
231 1 16.0629 10.4692 11.7912
233 1 20.4113 9.87182 11.999
164 1 23.0448 12.2461 8.74263
166 1 27.3793 12.4063 9.77812
168 1 31.6081 12.8366 10.2165
239 1 2.51435 14.6325 9.53161
241 1 6.9388 14.8504 10.1183
243 1 10.9761 14.8721 10.1447
245 1 15.4292 15.1977 11.5054
247 1 20.2283 14.4957 11.8407
180 1 27.0727 16.9346 10.2646
253 1 2.25974 18.349 9.17663
255 1 6.45864 19.5017 10.2951
257 1 10.9571 19.6026 10.1436
176 1 18.3933 17.3473 8.51032
259 1 15.5766 19.1498 11.9736
178 1 22.6825 16.4434 9.00537
182 1 31.6242 17.4799 10.3564
267 1 2.57298 23.5501 9.60152
269 1 7.06004 24.1883 10.4568
271 1 10.7842 23.807 11.0339
273 1 15.3825 24.1722 11.3086
192 1 22.4409 21.9521 9.39355
194 1 27.1515 21.6361 10.0289
196 1 31.9989 21.4582 10.3009
344 1 17.5834 25.9809 20.5554
1619 1 20.471 28.246 11.729
206 1 23.0605 25.8389 9.26738
208 1 27.8332 25.8521 9.31962
210 1 32.1175 26.0312 10.873
212 1 4.3244 7.71509 13.4682
214 1 8.95689 8.00435 13.8013
216 1 13.1955 7.7261 14.1924
218 1 17.8329 7.73168 14.9148
220 1 22.6696 7.77208 15.4251
349 1 28.8077 23.3978 19.5532
226 1 4.20885 12.3635 13.0766
228 1 8.56764 12.7825 13.5359
230 1 13.3925 12.6027 14.1571
232 1 17.8308 12.5044 14.5778
234 1 22.5223 12.2698 15.1419
235 1 25.1816 10.3749 12.3813
237 1 29.6173 10.4117 13.5525
308 1 31.248 12.7497 22.4812
309 1 1.83058 14.7422 15.9314
242 1 8.82821 16.9811 13.7055
244 1 12.8549 17.1422 13.8956
246 1 17.4777 16.7667 14.6814
248 1 22.1384 17.0087 15.2501
249 1 24.8804 14.8739 12.9672
251 1 29.5511 14.948 13.8125
5822 1 33.7962 15.2318 14.106
323 1 2.16873 19.0228 16.0343
240 1 4.13957 16.8845 13.1233
261 1 20.3428 19.0191 12.2634
263 1 24.7027 19.4982 12.2817
265 1 29.3307 19.6206 13.4563
1751 1 1.53331 27.9472 22.3838
337 1 1.87202 22.9782 15.6999
254 1 4.39583 21.4052 12.945
256 1 8.76275 20.8065 13.8648
258 1 13.1989 21.7551 13.7081
260 1 17.8446 21.723 14.4489
262 1 22.2933 21.6329 15.6271
275 1 20.2987 23.6401 12.1239
277 1 24.3898 23.995 13.0632
264 1 26.8034 21.1863 16.0187
279 1 29.621 23.705 12.9842
342 1 13.2991 26.4166 20.577
268 1 3.49898 26.0411 13.4322
270 1 8.78833 26.2858 13.858
272 1 13.3838 26.5999 13.7468
274 1 17.8683 25.6472 14.9295
280 1 31.501 25.7391 16.8553
282 1 4.01314 7.32902 18.9858
334 1 26.2387 21.2427 22.6958
222 1 26.7505 7.8919 15.7542
224 1 32.0584 7.70472 16.6146
295 1 1.62696 9.72786 16.7096
296 1 3.81112 12.7525 19.4601
297 1 6.15414 10.4042 16.7576
299 1 10.8923 10.4964 17.296
301 1 15.045 10.1272 17.7505
303 1 19.5664 9.70889 17.6859
305 1 24.1805 9.98952 19.1488
236 1 26.7304 12.6752 16.4723
238 1 30.8101 12.977 17.1841
310 1 3.59175 17.4418 19.4717
311 1 6.41262 15.2696 16.7909
313 1 10.567 14.9185 17.3444
315 1 15.4604 14.8609 17.5727
317 1 19.398 15.4373 18.1853
319 1 23.9695 14.7121 18.926
252 1 31.3547 17.5584 17.3204
324 1 3.91512 22.0334 18.993
325 1 6.63624 20.0135 16.8615
327 1 11.1745 19.3572 17.1359
329 1 15.8167 19.4035 18.0589
331 1 19.8331 19.3874 17.8741
333 1 23.8155 19.462 18.9518
250 1 26.893 17.3423 16.5651
335 1 28.7811 19.8444 20.105
339 1 6.8761 23.6297 15.6807
341 1 11.2462 24.1774 17.2038
343 1 15.3966 24.1211 17.4637
345 1 20.3855 23.9202 18.2442
347 1 24.2377 23.392 19.1777
266 1 31.6363 21.8197 17.1018
338 1 3.98644 25.9886 18.8481
353 1 5.62841 5.75304 22.5009
32 1 10.5568 16.8017 -5.20813
293 1 28.876 5.78527 19.1976
276 1 22.2552 25.9626 15.4873
1541 1 2.65025 27.8684 3.25267
278 1 26.9654 25.8513 16.1957
1621 1 24.8385 27.9745 12.4722
332 1 22.2687 21.507 22.1681
284 1 8.5712 7.99844 19.8685
286 1 13.1667 7.39217 20.3567
288 1 17.5994 8.52088 21.0261
290 1 21.5913 7.67972 21.3553
340 1 8.40946 26.3288 19.4334
5913 1 33.6127 23.8361 20.05
365 1 1.39185 10.5913 21.4381
367 1 5.90733 9.70503 22.6139
298 1 8.52518 12.7433 20.104
300 1 13.0591 12.0461 20.6643
302 1 17.8218 12.5226 20.7092
304 1 21.7667 11.8894 21.7366
306 1 26.4668 12.8242 21.9752
307 1 29.0712 9.80521 19.3591
5874 1 33.6738 10.5234 20.1235
379 1 1.02646 15.0142 22.5573
381 1 5.60946 14.316 22.2698
312 1 8.19939 17.5017 20.3601
318 1 21.559 17.8488 21.6583
320 1 26.2438 17.2972 21.9767
321 1 29.0582 14.9986 20.0087
5887 1 33.6355 15.2351 20.3999
393 1 1.54223 19.3175 21.8809
395 1 5.64554 19.188 22.8017
314 1 12.599 17.1185 20.315
316 1 16.947 17.1409 21.2982
5900 1 33.5928 19.9277 20.8672
407 1 1.92516 24.0194 22.0422
326 1 8.39179 22.1619 19.782
409 1 6.34514 24.2387 22.3925
1481 1 26.1084 28.0863 -0.11409
328 1 13.048 21.7515 20.8325
330 1 17.8269 21.7924 21.0815
1693 1 28.6049 27.3774 20.3717
294 1 30.4173 8.16135 22.5294
5848 1 33.963 24.1244 13.8632
1553 1 30.2918 28.2818 7.3849
1613 1 6.50071 28.2147 10.1368
223 1 29.4458 6.01647 13.3849
1471 1 3.03413 28.0872 -2.63379
143 1 7.14445 6.14753 3.90394
1683 1 6.03635 28.2307 16.3437
75 1 13.2696 6.5089 -1.95768
1483 1 30.6795 28.1252 0.122612
1685 1 11.1905 28.0317 16.6129
1473 1 7.46571 27.8328 -1.9213
79 1 21.9479 5.97016 -0.63014
211 1 2.4056 5.9755 9.67285
1689 1 19.6212 28.3223 18.3542
1611 1 2.0183 28.2117 9.84643
1617 1 15.4503 28.0866 10.9778
1681 1 1.49218 28.374 15.8549
285 1 10.892 5.92768 16.5656
149 1 20.7975 5.93094 6.22156
322 1 31.258 17.4106 22.8576
352 1 3.65903 7.65214 25.0486
354 1 7.75341 8.41981 26.2598
449 1 1.20539 14.7671 28.2919
423 1 5.22188 5.94341 29.1896
336 1 30.8318 22.3175 23.407
5927 1 34.0171 7.97787 30.1914
350 1 30.736 26.0984 23.0754
366 1 3.15809 12.4094 25.3888
368 1 7.53241 12.4008 26.2879
369 1 10.5276 10.4353 23.4846
371 1 15.3254 10.1085 23.5025
373 1 19.1403 10.4895 24.698
375 1 23.9755 10.7175 25.1826
377 1 28.3122 10.2161 25.4727
411 1 10.3304 24.5282 23.2949
380 1 3.14706 17.0667 24.9893
435 1 1.16335 9.99283 28.1996
385 1 14.2223 14.7693 23.98
387 1 19.5865 14.8133 24.4597
389 1 23.9955 15.281 25.3491
391 1 28.471 14.9345 25.4228
382 1 7.63699 17.0247 25.8601
397 1 10.2906 19.7471 23.1656
399 1 14.6645 19.484 23.5429
401 1 19.3284 19.4206 24.7102
403 1 23.8946 19.091 25.0398
405 1 29.216 19.2065 25.8326
6056 1 33.3199 5.98754 37.1951
394 1 3.62709 21.3809 25.558
396 1 7.93208 21.6458 26.0635
413 1 14.9921 24.0612 23.8894
398 1 12.5092 21.995 26.8108
415 1 18.8585 23.9557 24.7224
417 1 23.1423 23.6816 25.3903
419 1 28.0909 23.6074 26.1441
5978 1 32.8384 23.7024 26.4377
1759 1 19.389 28.4403 25.035
408 1 3.42705 26.0771 25.4797
410 1 7.9983 26.0494 26.1355
683 1 23.1477 19.0634 48.3475
648 1 5.01855 12.5193 50.7914
700 1 32.7154 26.1805 48.6337
669 1 23.1099 14.597 48.4946
355 1 9.89424 5.82429 23.2854
356 1 12.5949 7.74709 26.5201
358 1 17.1887 7.74395 27.0075
360 1 21.0947 8.03958 27.1034
362 1 25.6638 7.27955 28.1766
364 1 29.8888 8.18587 29.0212
437 1 5.05298 10.3901 29.0116
439 1 10.4047 10.3566 29.3976
370 1 12.3656 12.1224 26.614
372 1 17.0869 12.4772 27.0482
374 1 21.7954 12.5817 28.0762
376 1 26.0084 12.8459 28.6107
5939 1 32.7203 10.2327 26.1954
378 1 30.1203 13.0269 28.7313
677 1 7.73611 19.1219 48.4023
451 1 4.99236 14.9963 29.0716
453 1 10.2841 14.9568 29.3958
384 1 12.2119 17.0809 26.5776
386 1 17.0265 17.0148 26.9001
5952 1 33.1062 14.7009 26.218
392 1 30.2339 17.4452 29.2393
463 1 0.550169 19.3355 28.5138
465 1 5.04295 19.2496 28.7557
467 1 9.28238 19.1027 29.4372
388 1 21.5662 17.1716 27.96
390 1 25.8645 16.7517 28.5733
5965 1 32.9784 20.1528 26.3761
667 1 16.5976 14.5772 49.3487
479 1 5.08726 23.9228 29.2453
481 1 9.73175 24.4417 29.46
400 1 16.3515 21.2781 27.5626
402 1 21.0956 21.5879 28.2173
404 1 25.7398 21.3487 29.5839
406 1 30.5095 21.5307 29.5487
1963 1 3.93318 28.0848 41.3409
688 1 1.0191 26.3438 49.9341
665 1 12.069 14.9474 49.1748
412 1 12.6838 25.9588 26.9871
414 1 17.3912 25.869 27.607
416 1 20.7242 26.3677 28.5355
418 1 25.3689 25.8918 27.9059
420 1 29.8698 25.446 29.0809
422 1 2.94887 7.81014 31.496
424 1 7.49078 8.07882 32.3485
426 1 11.511 7.69742 32.5884
1757 1 15.5889 28.3812 24.1405
436 1 2.38416 12.3774 32.0019
438 1 7.00619 12.0465 31.9472
440 1 11.6502 12.4971 33.1376
441 1 14.4584 10.2503 30.1069
443 1 18.9518 10.3473 30.4487
442 1 16.2566 12.2916 33.5597
445 1 23.5634 9.71723 30.7172
447 1 27.4208 10.3457 32.2265
6004 1 31.8084 10.5463 32.7308
450 1 2.62073 17.023 32.164
455 1 14.4376 14.7644 30.0698
457 1 19.0318 14.2339 30.2821
459 1 23.7392 14.5927 31.0087
461 1 27.574 14.9594 32.3572
6017 1 31.7075 14.8397 33.0655
452 1 7.39903 16.7292 31.924
454 1 11.075 17.1946 33.1429
469 1 13.6955 19.1215 29.6571
471 1 18.1906 18.8588 31.0371
473 1 22.8928 19.2414 31.5381
475 1 27.5027 19.359 32.3962
6030 1 32.0818 18.871 33.1146
464 1 2.09826 21.4034 31.4075
466 1 7.59369 21.524 31.9463
483 1 14.3997 24.221 30.2725
468 1 11.6146 21.5389 32.7742
485 1 18.8843 23.6652 30.7283
487 1 23.3797 23.7797 31.483
489 1 27.9514 24.0471 32.5427
6043 1 32.6169 23.5733 32.9474
478 1 2.47593 25.9542 31.6157
480 1 7.11356 26.7653 32.1691
482 1 11.5731 26.4492 32.8324
1895 1 8.99906 28.1126 35.3044
698 1 26.8752 26.2754 50.6588
684 1 26.8803 21.5812 49.9145
477 1 0.68396 24.0581 27.653
663 1 7.59662 14.7136 48.453
660 1 0.822227 17.1614 50.5399
428 1 16.1464 7.86218 33.0084
697 1 23.2313 23.9776 48.9829
430 1 19.9374 7.88274 34.4248
432 1 24.6428 7.81222 34.4
434 1 29.2583 7.96821 35.7035
507 1 4.77638 9.80766 35.4977
509 1 9.02917 10.0213 35.6862
511 1 13.4529 9.63936 36.3081
444 1 20.8734 12.4341 34.2776
446 1 24.9144 12.4476 34.09
448 1 29.0442 12.3951 36.1145
521 1 4.48134 14.1444 34.5327
523 1 9.51426 14.8695 35.5383
525 1 13.8229 14.4974 36.9029
462 1 29.5297 16.8779 35.7991
535 1 4.56482 19.1818 34.7475
537 1 9.15436 19.6941 35.8034
539 1 14.0168 19.8874 36.3092
456 1 15.4285 17.5085 33.5867
458 1 21.2421 17.1472 34.082
460 1 25.0529 17.1777 34.8207
6095 1 33.1064 19.1575 37.6308
549 1 4.78396 23.8566 34.8447
551 1 9.14684 23.8861 35.601
553 1 13.9287 23.8365 36.1009
470 1 16.2662 21.1013 33.3921
555 1 18.1195 23.239 37.0503
472 1 20.8088 20.9868 34.3619
474 1 24.7252 21.3264 35.3859
476 1 29.5294 21.6 35.9414
6108 1 32.9837 23.9282 37.7517
2039 1 16.9733 28.4671 49.207
5991 1 31.7945 5.8392 32.5265
484 1 16.1253 25.7666 33.6798
486 1 20.7085 25.7583 34.5369
488 1 25.2134 25.9735 35.0105
490 1 29.7629 25.4425 35.7036
492 1 2.18064 7.75778 37.6977
494 1 6.51869 7.60932 39.0409
496 1 10.9458 7.18671 39.0043
498 1 15.1034 8.10689 39.8571
500 1 19.5064 7.90876 39.7588
502 1 24.1127 7.70598 41.1567
504 1 30.9613 7.95933 39.9283
506 1 1.87532 12.5973 37.6582
508 1 6.42788 12.821 38.6779
510 1 11.2554 11.8749 38.7376
513 1 18.0277 10.151 36.9488
512 1 15.5783 12.539 40.3849
515 1 22.647 10.3149 37.4279
517 1 27.2325 9.61465 38.5657
518 1 30.4716 12.5761 40.7735
6069 1 33.1986 10.6454 37.2595
520 1 2.36272 16.7124 37.7207
522 1 6.61823 17.2511 37.5574
526 1 15.9653 17.0767 39.688
527 1 18.2034 14.7848 36.3248
529 1 22.9063 14.8333 37.7723
531 1 27.228 14.9862 39.2291
6082 1 32.9541 14.511 37.3697
532 1 30.7139 16.6124 40.2183
524 1 11.1915 16.783 38.6547
541 1 18.552 18.6294 36.9482
543 1 22.3557 19.0115 38.1136
545 1 27.187 18.8613 38.0315
534 1 2.0829 21.5545 37.4886
536 1 6.76005 21.5009 38.3132
538 1 11.3198 21.5087 39.2525
540 1 15.5819 21.3956 40.0013
542 1 20.1141 21.551 40.278
557 1 22.4714 23.8257 38.1248
559 1 27.2705 24.2911 38.0995
546 1 30.324 21.8846 39.7294
548 1 2.32379 26.3053 38.0263
550 1 6.09896 25.5015 37.9125
552 1 10.9429 25.8337 38.6017
670 1 26.8307 16.8672 50.0279
554 1 15.5774 25.7563 40.0281
693 1 12.0569 24.0129 48.6612
560 1 30.3137 26.4314 40.504
562 1 0.973797 7.84562 43.894
681 1 16.9164 19.9648 49.2004
691 1 8.22008 23.7478 47.8848
661 1 3.56177 14.8129 47.2269
577 1 3.85667 10.3568 41.2121
579 1 8.50196 10.174 42.0853
581 1 12.4194 10.1271 42.792
583 1 17.1297 10.0923 43.2301
514 1 19.9456 12.3788 40.3263
585 1 21.8193 10.1928 43.4755
516 1 24.5594 12.1902 41.2542
587 1 27.9235 9.21181 43.0516
591 1 4.09317 15.034 40.9936
593 1 9.21112 14.5023 42.1325
595 1 12.7252 14.177 43.6957
597 1 17.2154 14.4339 43.3393
599 1 21.9361 14.5149 43.5898
601 1 28.3163 14.7725 43.1378
605 1 3.4447 19.316 40.5189
607 1 8.21147 19.075 41.3044
609 1 12.6568 18.6459 42.7363
611 1 17.0553 19.0249 43.8398
528 1 20.2965 16.1739 40.3201
613 1 21.59 19.0611 43.7476
530 1 24.563 17.3248 41.7466
615 1 28.2804 19.6233 43.0807
619 1 3.91745 23.9278 41.0978
621 1 8.35272 23.5477 42.1208
623 1 12.8151 24.1917 42.6245
625 1 17.481 23.6056 43.5303
627 1 22.0986 23.8459 44.5126
544 1 24.9117 21.4054 41.3619
629 1 27.768 23.7396 43.0511
672 1 32.4147 16.8753 49.0856
618 1 1.17159 26.0618 44.68
668 1 20.2743 17.0378 50.8955
1897 1 13.5435 27.953 36.8608
383 1 10.3853 14.4898 23.0732
1829 1 18.1814 28.1445 31.5767
1763 1 27.8251 28.3061 25.7041
556 1 20.0565 25.9138 41.0507
558 1 24.6919 26.1755 41.4976
1833 1 28.4074 28.2883 32.1007
564 1 5.43509 8.2004 45.0907
566 1 10.0905 7.75908 45.8671
568 1 14.5267 7.76552 46.0245
570 1 19.7987 7.85804 46.7621
572 1 25.2756 8.07645 45.6389
574 1 31.2198 7.60077 44.575
576 1 1.45178 12.4579 43.8345
578 1 5.81079 12.8458 44.7478
580 1 9.92409 12.3426 46.2264
582 1 14.5158 11.9263 46.3457
584 1 19.3015 12.3437 46.7225
586 1 25.5235 12.3921 45.1316
657 1 29.2133 10.3475 47.4753
588 1 31.9839 12.6961 44.3363
592 1 6.14702 16.9535 44.7937
671 1 29.3482 14.9753 47.219
602 1 32.0595 17.1341 44.4017
590 1 1.46287 16.8291 44.1751
675 1 3.65981 19.5362 47.7078
594 1 10.7808 17.0167 46.1694
596 1 14.6396 17.0971 46.0683
598 1 19.2576 16.6899 47.0567
600 1 25.3896 16.9014 45.7255
685 1 29.091 19.8453 47.0325
604 1 1.34228 21.4145 44.3424
689 1 3.43753 23.8931 47.7118
606 1 5.80495 21.4559 44.6254
608 1 10.0316 21.4267 45.2958
610 1 14.6292 21.7215 46.6146
612 1 19.7666 21.2312 46.2013
614 1 25.0304 21.6232 45.537
699 1 29.7281 24.1985 47.5646
616 1 31.8409 21.8579 44.4351
620 1 5.74703 25.9048 44.7005
622 1 10.1623 26.9663 45.307
624 1 15.0744 25.8126 45.9338
626 1 19.7599 25.9912 46.7356
628 1 25.7636 26.4779 46.1911
630 1 31.5153 26.1307 44.8611
690 1 5.47836 26.1039 51.045
632 1 0.866219 8.7849 50.3238
676 1 5.05602 21.534 51.1543
695 1 17.0442 23.719 49.5013
674 1 0.35259 21.6741 50.386
679 1 12.3411 19.6801 48.9927
642 1 25.8803 7.82438 49.8168
644 1 32.7124 8.26534 48.9085
647 1 2.99126 10.1593 47.4452
646 1 0.756011 12.8814 50.4221
686 1 32.4194 21.4631 48.7302
649 1 7.68315 10.1554 48.0488
651 1 12.2257 9.67624 49.3049
653 1 16.7574 9.78994 49.8643
655 1 22.8192 9.93821 48.0827
656 1 26.8194 12.1677 49.6745
658 1 32.8846 12.5522 49.5631
7356 1 33.2565 28.2566 36.998
1967 1 13.3913 27.9817 42.0154
7291 1 32.2981 27.8761 32.4985
1965 1 8.70724 28.0502 42.1077
634 1 4.89334 7.71425 50.8854
363 1 27.8415 6.1305 25.2849
421 1 0.727824 6.05889 27.8841
361 1 23.5728 5.86365 24.9089
1903 1 27.3791 28.2203 38.5938
1761 1 23.4621 28.2078 25.1795
2033 1 3.60257 28.4446 47.9434
1969 1 17.823 28.3176 43.1973
1901 1 22.7257 28.3415 37.7677
7226 1 32.4855 28.2726 25.9501
636 1 8.91531 7.96457 52.0012
638 1 14.517 7.59688 52.4751
640 1 20.843 8.0745 51.2275
1077 1 33.8161 9.80457 76.0593
1118 1 31.7525 25.8368 78.3643
851 1 26.2584 5.918 61.804
717 1 3.00621 10.8895 53.7891
719 1 7.14201 10.4924 54.6434
650 1 9.54595 12.5635 52.0763
652 1 14.2079 12.3345 52.7318
723 1 17.9844 10.2997 54.1838
1024 1 0.942034 21.9481 78.689
725 1 23.4923 10.373 52.6503
726 1 27.301 12.1494 54.4278
727 1 30.2346 9.65073 51.9798
1116 1 27.1923 26.3109 78.2956
731 1 2.89329 15.0527 54.1757
733 1 6.82754 15.306 54.4527
666 1 14.4676 16.912 52.0749
737 1 17.3619 15.1025 53.8633
739 1 24.213 14.7351 52.2186
741 1 30.4477 14.5305 51.9118
740 1 27.6263 16.7496 54.7474
745 1 2.86878 19.672 53.9081
987 1 16.0675 6.05119 73.6717
664 1 9.86317 17.2308 51.7957
751 1 18.586 19.0316 53.5496
753 1 23.9421 19.3186 52.9625
755 1 30.2411 19.2478 51.7251
759 1 2.52241 24.178 54.0377
678 1 9.66928 21.5643 51.7481
680 1 14.0535 21.6041 52.5217
765 1 17.8519 23.8581 53.2507
767 1 24.4775 24.1479 53.0282
754 1 27.2647 21.6267 54.5881
769 1 30.3058 24.0931 52.1225
756 1 33.899 21.2711 53.3447
968 1 0.550006 26.723 74.2586
954 1 0.550668 21.8928 73.5765
692 1 9.4216 26.3037 51.4558
694 1 14.0928 26.204 52.1458
915 1 9.16394 5.95621 69.6946
696 1 20.5715 26.1414 51.2931
730 1 0.469053 17.0678 56.7432
702 1 0.343179 8.45379 56.6434
704 1 4.36485 8.62774 57.7075
716 1 1.17048 12.6846 57.4813
706 1 9.18958 8.20795 58.2705
708 1 15.4045 7.67813 57.1518
710 1 21.7122 8.10998 55.8503
712 1 27.2148 8.03428 54.2983
1100 1 20.8627 21.5687 79.1392
718 1 5.20127 12.7029 58.0976
720 1 9.04079 12.8018 58.1322
721 1 11.1093 10.4972 55.0161
722 1 15.0318 12.5089 56.6104
724 1 22.2242 12.4506 55.7058
795 1 25.2506 10.3408 57.6302
797 1 30.9608 9.79597 56.6067
732 1 5.21933 17.2359 57.3223
734 1 9.83474 17.3795 58.1714
735 1 11.5033 15.1704 55.1019
736 1 15.6774 17.6714 57.4969
738 1 21.4731 16.8787 55.3696
809 1 25.002 14.9529 57.3333
811 1 31.1757 13.586 56.558
747 1 7.71004 19.1358 54.9207
749 1 12.3006 19.0954 55.5501
823 1 24.9086 19.6173 57.0113
825 1 30.9064 19.2874 56.1683
758 1 0.370367 26.3805 56.5901
761 1 6.84476 23.9384 54.7248
746 1 4.65174 22.2637 57.5911
763 1 10.5427 24.9784 55.0719
750 1 16.0815 21.7906 56.4498
752 1 21.3116 21.5874 55.2657
837 1 25.3755 23.892 57.0812
839 1 31.4035 23.3223 55.6998
1086 1 20.9323 16.8707 79.0248
760 1 4.8567 26.3405 57.0742
989 1 22.2963 5.70721 71.8228
762 1 9.42896 26.5792 58.502
1091 1 33.7351 14.7233 76.0328
764 1 15.7558 26.1093 56.4882
766 1 22.0422 25.9602 55.8257
654 1 20.2046 12.2665 51.2044
768 1 27.8289 26.6125 55.1443
728 1 33.6043 12.2828 53.6901
1040 1 8.0949 26.2199 77.1407
778 1 16.0165 7.8833 61.408
780 1 22.7319 7.69006 60.6195
1104 1 31.4073 21.267 78.3305
782 1 28.8954 7.97182 59.4506
1059 1 23.4068 5.85951 76.4927
787 1 2.2424 10.5294 60.5513
789 1 6.48508 10.5883 61.3986
791 1 12.5891 10.3639 59.6987
793 1 19.2021 9.9523 58.6395
794 1 22.6011 12.5088 60.6602
796 1 28.8736 12.4744 58.8835
867 1 31.748 10.3312 60.4218
801 1 2.88178 15.2028 60.4015
803 1 6.69437 14.8033 61.0574
805 1 13.1288 15.1236 59.9389
807 1 18.8614 14.4607 58.3456
806 1 16.7526 17.4927 61.22
808 1 22.533 16.8027 59.9044
810 1 28.8395 16.8281 59.0827
881 1 32.0174 14.4009 61.0929
815 1 2.35376 19.631 59.9742
817 1 6.82963 18.9042 61.3273
819 1 12.9518 19.0492 59.6906
821 1 19.0754 19.2078 58.1323
893 1 25.6864 19.508 61.5595
895 1 32.749 18.9902 60.5114
829 1 2.07106 23.8205 59.9126
831 1 6.61811 23.7537 61.1231
748 1 9.00837 21.5884 57.912
833 1 12.7905 23.7632 59.177
820 1 16.4866 21.6732 61.3798
835 1 19.6231 24.0401 58.716
822 1 22.8263 21.5747 59.8629
824 1 28.975 21.2449 58.9001
909 1 32.3104 24.0699 60.3653
847 1 14.0349 5.80177 64.0258
714 1 33.7215 7.66997 53.3603
1038 1 1.19043 25.7429 77.7768
707 1 11.5502 5.9302 55.3889
836 1 22.6042 26.0041 60.3577
838 1 28.9192 26.0479 58.8297
774 1 4.0777 8.12656 63.8344
776 1 10.0764 7.95894 62.7696
845 1 7.37322 6.39618 65.2758
705 1 7.4538 5.99986 55.2821
850 1 23.6885 8.51376 64.4452
852 1 30.4135 8.24551 63.6646
788 1 4.36845 13.0848 63.8231
790 1 10.6143 12.4014 62.4256
859 1 7.66344 10.5185 65.6191
861 1 13.723 10.1573 63.9479
792 1 16.3333 12.7269 61.1247
863 1 19.5745 10.3148 62.5805
865 1 26.0816 10.8048 61.9853
864 1 23.5338 13.1462 65.2936
866 1 29.7557 12.8466 63.7395
937 1 33.4347 10.1284 65.0571
802 1 4.1776 17.5919 63.8868
804 1 10.144 17.1445 62.9617
875 1 13.9754 14.7701 63.5973
877 1 19.7808 14.0384 62.6586
878 1 23.2833 16.7628 63.8457
879 1 26.0526 14.8367 61.8866
889 1 13.8377 19.3674 64.218
891 1 20.4278 19.3377 62.6149
880 1 30.6258 17.5827 63.385
843 1 1.49622 6.2779 66.9233
816 1 4.35259 21.7961 63.5866
901 1 8.01664 24.1209 65.4629
818 1 10.2995 21.7776 62.2428
903 1 14.3114 23.914 63.7945
905 1 20.1338 24.026 62.7847
907 1 26.6432 24.157 61.5077
892 1 23.7777 21.297 64.3772
894 1 29.9411 21.5111 62.9366
830 1 4.27 26.0799 64.1136
832 1 10.5126 25.9242 62.046
1111 1 11.2603 23.4001 79.1327
834 1 16.801 26.0568 60.6418
1102 1 26.7118 21.791 77.8088
906 1 24.1119 25.9876 64.9878
919 1 21.3126 5.79739 67.2793
908 1 30.2874 26.4425 63.1638
844 1 5.50529 8.41612 68.0734
1026 1 7.66602 21.5183 77.4402
846 1 11.3017 8.08401 66.9905
848 1 17.6675 8.3012 65.8158
1117 1 28.6883 23.8523 75.2722
922 1 31.0391 7.92539 68.0871
857 1 1.70487 10.5303 66.4522
858 1 4.73162 12.4444 68.6056
860 1 11.6584 12.8276 67.0357
931 1 14.319 10.7059 68.4392
862 1 17.2318 12.3688 66.0359
933 1 21.187 10.3816 67.5536
935 1 27.2571 10.2386 66.4715
936 1 31.0496 12.6037 68.0019
871 1 1.68697 15.095 66.288
873 1 7.54291 14.5885 65.555
872 1 5.1493 17.0763 68.5867
874 1 11.237 17.1492 66.7438
945 1 14.9294 14.679 68.1969
947 1 20.527 14.1105 67.5634
949 1 27.7643 15.0895 66.308
951 1 33.4444 14.5519 65.3937
885 1 1.82224 19.7394 66.0541
887 1 7.99879 19.4602 65.7539
876 1 17.6934 17.0976 65.6589
961 1 21.0449 18.5573 67.143
963 1 26.9343 19.1603 65.5906
950 1 31.0431 17.3314 68.2737
964 1 30.3974 20.5809 66.5683
899 1 1.60693 24.2473 66.6368
886 1 5.62435 21.4341 68.4222
888 1 11.9472 21.7488 66.5898
890 1 17.5965 21.3249 65.8986
975 1 21.0309 24.1892 66.9086
977 1 27.4045 23.8296 66.0865
979 1 33.3092 23.6199 64.6162
900 1 5.58196 26.0813 68.1889
902 1 11.9728 25.5525 66.4333
2245 1 8.38047 28.1457 65.2884
904 1 17.8481 26.301 65.862
1115 1 23.6791 23.8722 76.5156
2247 1 13.912 28.3566 64.2129
978 1 30.9524 26.1413 67.8038
742 1 33.448 16.2897 53.6252
916 1 12.8645 7.99059 70.9516
918 1 17.6385 7.80631 70.3934
920 1 25.1409 8.18544 68.8344
1005 1 28.6968 9.72608 71.0437
1113 1 17.4071 23.8835 76.8426
927 1 2.54948 10.33 71.081
929 1 8.60388 10.0299 70.1013
930 1 12.1827 12.4591 71.5248
932 1 18.6262 11.7116 70.2044
1003 1 22.373 10.279 72.0378
934 1 24.6805 12.3445 69.1992
1006 1 32.0913 12.1089 72.6338
941 1 2.65459 15.0098 70.9291
943 1 8.85251 14.6446 69.8709
944 1 12.3243 17.1385 71.2258
946 1 18.6599 17.117 70.0224
1017 1 21.9437 14.6256 71.8428
1019 1 28.4502 15.0553 70.3125
955 1 2.60554 19.6474 70.8485
957 1 9.03607 19.1965 70.4277
959 1 14.7239 19.2917 68.9212
1031 1 22.5946 19.1259 71.6806
948 1 24.6567 16.7195 68.8659
1033 1 27.6173 20.2684 69.3208
1020 1 29.1916 18.9701 72.447
969 1 2.39587 24.4402 71.0575
971 1 9.19708 23.7958 69.6145
973 1 15.8094 23.919 68.2489
958 1 12.1973 21.5385 71.1821
960 1 18.5605 20.9585 70.4808
1045 1 21.809 23.866 72.2339
962 1 23.9788 22.7596 69.1242
1047 1 27.4632 24.6548 70.8836
1035 1 30.9686 22.7054 70.7135
2109 1 18.3555 27.8978 53.6732
972 1 12.7136 26.1677 71.2595
974 1 18.6167 25.5517 70.5589
2313 1 2.64581 28.3023 70.9518
976 1 24.735 26.3243 68.7915
2321 1 27.1566 28.2862 65.992
2455 1 11.2777 28.1046 78.913
914 1 5.91255 7.57869 72.7652
986 1 13.3347 7.69984 75.9414
988 1 19.5371 8.29682 74.7236
990 1 25.6859 7.71996 73.6077
992 1 31.9758 8.25423 72.9163
997 1 3.22409 10.2883 75.8934
928 1 5.90906 12.7992 72.9399
999 1 9.69018 10.1343 73.8546
1001 1 15.332 9.98703 73.5568
1002 1 19.418 12.2554 74.7279
1004 1 25.8722 12.3713 73.4433
1075 1 29.1842 10.395 75.0806
2183 1 31.7667 28.1195 55.4651
1011 1 3.68033 14.7736 75.4798
942 1 6.37072 17.3217 72.8804
1013 1 9.87267 14.7352 74.6425
1015 1 15.7848 14.4594 72.838
1016 1 19.6517 16.4666 74.5124
1089 1 29.8499 14.7674 74.6569
1022 1 32.2372 16.542 72.4397
1025 1 4.13875 19.5723 75.2243
1027 1 10.3301 19.812 74.4319
1029 1 16.0226 19.1456 72.8476
1018 1 25.8651 17.1559 73.4803
1103 1 30.7524 18.4188 75.7703
1042 1 13.4348 26.1876 75.8997
1039 1 3.99219 23.8951 75.3821
956 1 6.52083 21.8482 73.2052
1041 1 9.83647 24.458 74.3232
1028 1 13.5434 21.622 75.5217
1043 1 16.0294 23.8962 72.8103
1030 1 20.1288 21.0232 74.6154
1032 1 25.5333 21.9624 73.0525
1034 1 32.0218 21.9316 74.1525
1088 1 26.8925 17.1624 77.4778
970 1 6.55645 26.4212 72.6306
849 1 19.6835 6.22215 63.1895
2463 1 33.5971 28.1115 75.9145
1044 1 19.6784 26.8713 74.5146
1046 1 25.51 26.6068 73.5502
781 1 25.2472 5.86204 57.3102
1048 1 31.8576 26.3118 71.7694
982 1 0.830635 8.08308 78.1276
682 1 20.9276 21.7213 51.1985
984 1 7.33698 8.00541 76.7824
1101 1 23.2464 19.2112 75.6542
1060 1 27.0878 7.99212 78.1445
1062 1 31.6755 8.24037 78.7003
996 1 0.662917 12.8351 78.601
998 1 7.10538 12.4166 77.528
1069 1 10.6553 9.96589 78.4011
1000 1 13.1333 12.3765 76.1667
1071 1 17.0749 10.2202 77.2153
1073 1 23.3066 10.3721 76.7709
1074 1 27.3848 12.4666 77.7818
1076 1 31.8654 12.3298 78.3624
1010 1 1.15398 17.6487 77.8287
1012 1 7.24628 17.2686 77.0348
1083 1 10.7661 15.4249 78.7226
1014 1 13.9392 16.9855 75.7129
1085 1 16.9722 14.8815 77.4211
1087 1 23.3741 14.31 76.1745
703 1 2.74662 5.92738 53.6355
1090 1 32.5504 16.943 79.0809
1097 1 11.1113 19.0584 78.9808
1099 1 17.3661 19.359 77.3954
2323 1 34.0625 28.2281 64.7253
2177 1 13.5612 28.0003 59.4896
2383 1 4.21118 28.3461 75.4756
2175 1 6.57949 28.3504 61.1792
2391 1 28.4322 28.4102 70.8946
2105 1 7.15734 28.4323 53.7191
2389 1 22.2399 28.1915 71.8385
917 1 14.8249 5.84587 68.5442
713 1 29.6045 5.70053 52.0602
1114 1 20.6092 26.051 79.1308
662 1 5.53927 17.1332 51.2811