ITEM: TIMESTEP
94000
ITEM: NUMBER OF ATOMS
16000
ITEM: BOX BOUNDS pp pp pp
4.0901109362197019e-01 1.0179098890638141e+02
5.7081756468145954e+00 9.6491824353185081e+01
-5.2576291467388643e+00 1.0745762914673861e+02
ITEM: ATOMS id type x y z
6 1 15.1608 7.85852 -4.7782
8 1 19.8372 7.49409 -4.04058
10 1 23.8248 7.95816 -3.20122
12 1 28.52 7.83918 -2.22044
14 1 33.3475 8.3598 -1.54029
85 1 3.59073 10.0388 -2.77545
87 1 8.28522 9.81917 -2.57449
81 1 26.5657 5.90358 0.437295
89 1 12.6688 10.8228 -2.02677
22 1 19.0723 12.1382 -4.12091
24 1 24.201 12.6346 -3.35339
26 1 28.9449 12.3555 -2.92248
28 1 33.5331 12.8481 -2.11236
5835 1 34.1639 19.2782 14.2532
99 1 3.49882 14.2468 -3.2198
101 1 7.97562 14.5364 -2.55434
4 1 10.7265 7.86009 -4.84361
103 1 12.6182 15.1596 -2.4451
34 1 15.3553 16.8002 -4.7203
36 1 20.0542 16.8493 -4.3897
38 1 24.2532 17.1486 -3.88589
113 1 3.32845 18.7969 -3.26674
115 1 7.86891 19.4061 -2.43658
117 1 12.3898 19.0061 -1.95538
40 1 28.967 16.7877 -3.35798
42 1 33.209 16.9015 -2.18348
127 1 3.37722 23.5465 -3.45015
129 1 7.89771 23.8772 -2.56839
5861 1 33.6212 5.93869 20.2867
131 1 12.7076 23.6474 -1.86649
50 1 19.672 21.6457 -4.25477
52 1 24.8041 21.6739 -3.64461
54 1 28.6721 21.5086 -3.21453
5796 1 32.9666 5.94219 13.7865
64 1 19.6967 26.046 -4.10113
66 1 24.3484 26.5466 -3.14675
68 1 28.4603 26.0299 -2.55158
70 1 33.0366 25.6049 -2.39065
10878 1 1.27594 8.0036 0.1041
72 1 5.27429 7.76543 0.231494
74 1 9.88478 7.56357 1.01082
76 1 14.5196 7.582 1.61593
27 1 31.3217 10.2997 -5.20027
1553 1 29.6806 28.289 7.11563
10891 1 0.632762 12.6245 -0.156452
86 1 6.0778 12.3233 0.180411
88 1 10.5243 12.3324 1.51908
90 1 14.984 12.4165 1.88956
91 1 17.3127 10.0103 -1.30741
93 1 21.2261 10.0276 -0.648766
95 1 25.8043 10.2811 0.472011
97 1 30.6171 10.467 0.781918
10904 1 0.807021 16.3332 -0.105428
105 1 17.206 14.6368 -1.41142
107 1 21.2744 14.7143 -0.685963
109 1 25.9449 14.9127 -0.143683
111 1 30.2851 14.862 0.884438
100 1 5.36672 16.6376 0.30234
102 1 10.0682 16.95 0.973028
104 1 14.6753 16.7896 1.51011
119 1 17.1494 19.4039 -1.54896
121 1 21.9649 19.1561 -1.05003
123 1 26.5001 18.9299 -0.315899
125 1 31.1305 19.6566 0.504258
10917 1 0.570528 21.3118 -0.399571
114 1 5.4354 21.0907 -0.0810027
116 1 10.1789 21.559 0.729026
118 1 14.0817 21.4043 1.35598
133 1 18.4924 23.9703 -1.10376
135 1 22.3221 23.7983 -0.917977
137 1 25.8368 23.4411 -0.031539
56 1 33.4907 21.6313 -2.42592
139 1 30.3525 23.5397 0.721645
10930 1 1.22749 25.9364 -0.0208026
128 1 5.17943 25.9254 0.500683
130 1 10.0568 25.8554 1.08261
132 1 14.87 26.0238 1.23958
215 1 11.5964 5.87369 10.6393
1611 1 2.90325 28.1435 8.98532
20 1 15.2323 12.2555 -4.76532
78 1 19.1963 8.03051 2.0226
80 1 23.8024 8.05863 2.6913
82 1 28.0282 8.13833 4.15666
84 1 32.7254 8.5156 4.15652
155 1 2.70389 9.49458 3.75864
157 1 7.18493 9.78708 3.62749
159 1 11.8998 10.1374 4.39207
92 1 19.1551 12.657 2.10126
161 1 17.0253 9.51731 5.07331
94 1 23.1708 12.6672 2.58913
96 1 27.1996 12.8558 3.12057
98 1 31.9405 12.5686 4.02131
169 1 2.648 14.7867 3.59533
171 1 7.40821 14.5879 4.09109
173 1 12.095 14.2863 4.37664
175 1 16.8176 14.835 4.74924
106 1 19.1448 17.2718 1.89997
108 1 23.6569 16.8868 2.64157
112 1 32.9309 16.9899 4.02115
183 1 3.10017 19.1028 2.82946
185 1 7.84299 19.1206 3.29193
187 1 12.2231 19.0598 4.55258
189 1 16.6159 19.1043 4.898
110 1 28.32 17.1613 3.55356
197 1 2.91873 23.8396 2.8434
199 1 7.65972 23.8624 3.82702
201 1 12.3046 23.6309 4.40938
120 1 18.7525 21.206 1.92477
203 1 16.4417 23.8474 4.80325
122 1 23.7541 21.6251 2.52716
124 1 28.5789 21.5057 3.53647
126 1 33.273 21.8842 3.99424
1619 1 20.7248 27.9144 11.7659
134 1 19.3046 26.8833 2.52238
5848 1 34.0358 23.841 14.7607
136 1 23.8024 26.2818 3.25121
138 1 27.8867 25.9733 3.51546
140 1 32.6268 26.1708 4.00937
351 1 1.02249 6.05628 22.3761
142 1 5.14037 7.78019 6.60885
144 1 9.14174 7.57114 7.15862
146 1 13.6988 7.79118 7.86796
148 1 18.3734 8.0535 8.33929
150 1 22.7387 8.32788 9.10941
62 1 15.8091 26.1443 -4.50406
153 1 30.0725 5.67493 6.98402
1547 1 16.5959 27.9906 5.48972
156 1 4.71261 12.4347 6.83518
158 1 9.41148 11.8224 7.07507
160 1 14.0568 12.0896 7.80755
162 1 18.6343 12.3278 8.56675
163 1 20.8953 10.4755 5.27295
164 1 22.8071 12.8787 9.10192
165 1 25.6669 9.94711 6.52082
167 1 30.1257 10.3804 7.48533
219 1 20.2826 5.84963 12.0129
170 1 5.22673 16.98 6.3184
177 1 20.6054 15.1209 5.76865
179 1 25.8156 15.3347 6.29361
181 1 30.1368 14.6017 6.8583
172 1 9.62378 16.5826 7.0228
174 1 14.0447 16.7429 8.09373
176 1 18.6192 16.8048 8.59354
191 1 21.2454 19.339 5.58279
193 1 26.1194 19.3419 6.00947
195 1 30.5868 19.3589 7.11597
10982 1 1.0168 21.2382 5.28123
184 1 4.8324 20.7737 5.94837
186 1 9.37948 21.2206 7.20766
188 1 14.2148 21.5282 7.94767
190 1 18.189 21.5141 8.43765
207 1 25.6247 23.8828 6.03592
209 1 30.6593 23.3733 6.78461
409 1 6.31691 23.3991 22.4966
1753 1 5.90442 28.0911 22.4541
198 1 4.90109 26.2966 6.39887
200 1 9.41119 25.9498 7.23731
202 1 14.4506 26.2187 8.27112
205 1 20.9109 23.5008 5.40834
1691 1 24.0616 28.0684 18.8335
1621 1 25.0333 27.5556 12.4315
1685 1 10.8154 27.9684 16.932
217 1 15.2686 5.79205 10.9432
1475 1 13.0272 28.3158 -1.38791
1689 1 19.5554 27.9353 18.5672
152 1 27.2341 7.24771 9.48254
154 1 31.7229 7.89294 10.2415
225 1 2.34596 10.2489 9.25856
227 1 6.77982 10.1194 10.3453
229 1 11.347 9.86482 10.4557
231 1 16.4255 10.2625 11.5762
233 1 20.504 9.8046 12.2649
166 1 27.2587 12.3561 9.68866
168 1 31.9713 12.6099 10.5456
239 1 2.09705 15.2163 9.48353
241 1 6.80571 14.347 9.92
243 1 11.4814 14.3135 10.2848
245 1 16.0226 14.8386 10.8477
247 1 20.5574 14.85 11.9985
180 1 27.3904 17.0303 9.84012
253 1 2.2965 19.0773 9.38259
255 1 6.8697 19.0256 9.42989
257 1 11.5183 18.7589 10.5493
259 1 15.6624 19.2 11.7601
178 1 23.2188 17.2069 9.08135
261 1 20.4069 19.3513 11.9689
263 1 24.9484 19.2144 12.9935
182 1 32.0689 17.3448 10.3328
267 1 2.93813 23.4947 9.13779
269 1 7.22153 23.6699 9.60727
271 1 11.1048 22.9661 10.0456
273 1 15.0943 23.7801 11.1168
192 1 23.7111 21.1546 8.95863
194 1 27.5372 21.5478 9.75243
196 1 33.2042 21.4261 10.6163
48 1 15.2265 21.4643 -4.77624
268 1 4.61075 25.5597 12.2998
1615 1 11.3256 28.0464 10.9689
204 1 18.7581 25.4985 8.39874
206 1 23.1436 25.0787 8.9167
208 1 27.6189 25.8515 9.75731
210 1 32.2756 26.3577 10.0044
1681 1 1.89214 28.1487 15.7462
212 1 3.92021 7.56058 12.8066
214 1 8.7135 7.62587 13.7682
216 1 13.4115 8.14211 14.5311
218 1 17.204 7.93283 14.8997
220 1 23.1727 7.88562 14.9916
295 1 1.89072 9.97565 16.0282
226 1 3.99919 12.0268 12.3143
228 1 8.71015 12.2062 13.5836
230 1 13.0565 12.8057 13.805
232 1 18.0772 12.4409 14.3263
234 1 22.4818 12.4686 15.5108
235 1 24.9632 10.1507 12.1272
237 1 29.1049 9.83493 13.0009
236 1 27.0273 12.3325 15.8919
5809 1 33.852 10.2093 13.8739
309 1 1.60566 14.6152 15.0002
249 1 25.1024 14.8708 12.3282
251 1 29.521 15.212 13.3282
250 1 26.8271 17.1631 16.0184
5822 1 34.0803 14.9211 13.9441
323 1 1.92963 19.1838 15.7347
240 1 4.34924 16.3266 12.5812
242 1 8.81634 16.7886 13.1745
244 1 13.522 16.9396 14.2629
246 1 17.5729 17.0181 14.8881
248 1 22.4797 17.1129 15.4142
265 1 29.6025 19.0897 13.2975
1545 1 11.8031 27.9818 4.94459
337 1 2.07335 23.5628 15.8854
254 1 4.40372 21.4592 12.8262
256 1 8.56695 21.4213 13.2288
258 1 12.9043 21.5651 13.4004
260 1 17.5016 21.7362 14.2937
275 1 20.7799 23.9785 11.4996
262 1 22.0625 21.9726 15.4923
277 1 25.1924 23.2401 12.9136
279 1 30.0091 23.7078 12.8803
147 1 16.1717 5.87993 4.97147
346 1 21.9552 26.066 21.9044
270 1 9.44366 25.7064 13.156
272 1 13.8438 25.8002 14.2361
274 1 17.9834 25.7069 14.9125
276 1 22.2981 26.3071 16.044
407 1 1.67688 23.928 21.4531
344 1 17.1348 26.3498 21.4859
282 1 3.74608 7.58859 18.8882
1471 1 3.86847 28.102 -3.11195
342 1 12.6708 25.6575 20.6048
5913 1 33.3153 24.2649 20.2635
222 1 27.4994 7.47641 16.0919
224 1 31.3257 8.41461 17.4405
296 1 3.89684 12.1581 19.4886
297 1 5.91227 9.77651 16.3778
299 1 11.2188 9.81083 17.0476
301 1 14.9381 9.84428 17.78
303 1 19.5513 10.1628 18.1308
305 1 24.0542 10.2876 18.7934
238 1 31.2292 12.2078 16.627
311 1 6.05902 14.0998 16.0319
313 1 10.6655 14.203 16.5863
315 1 15.1198 14.1265 17.5687
317 1 19.5709 14.8819 18.0654
319 1 24.221 14.0623 18.5349
321 1 28.7597 14.8071 19.294
310 1 3.92291 16.7511 19.1259
325 1 6.1965 18.7415 16.3322
327 1 10.6714 18.8124 16.5833
329 1 14.8292 19.4475 17.321
331 1 19.5539 19.1248 18.4699
333 1 24.7256 18.8054 18.7389
335 1 28.9714 19.2336 20.2133
252 1 31.5254 16.8673 17.2581
324 1 4.39851 21.0165 19.1246
339 1 6.01031 23.5594 16.3021
341 1 10.5343 23.3487 17.0752
343 1 15.2595 23.6935 17.2421
345 1 19.7404 23.5269 18.5021
347 1 24.7697 23.4875 18.953
264 1 27.7312 21.7679 16.5881
266 1 31.6886 21.5936 16.7857
338 1 4.02812 25.868 18.9509
1683 1 6.20632 28.3209 15.5699
340 1 8.28694 25.9521 19.1162
278 1 26.9851 25.574 16.047
280 1 31.6772 26.0465 16.785
284 1 8.16794 7.65288 19.8945
286 1 12.7123 8.03796 20.6199
288 1 17.5484 7.73667 20.8603
290 1 21.6131 7.53247 21.4757
292 1 27.0355 8.03348 22.7779
283 1 6.39363 5.8762 16.4728
1687 1 15.1635 27.8866 17.2838
365 1 0.895411 10.0015 22.0903
367 1 5.62007 9.97722 22.4126
298 1 8.26886 12.3948 19.5502
300 1 12.3367 12.3514 20.7239
302 1 16.972 12.1497 20.3019
304 1 21.4051 12.3228 21.9523
306 1 26.5995 12.5689 22.2116
307 1 28.5313 10.091 19.6872
5874 1 33.2999 10.038 20.616
379 1 1.129 14.5375 22.2666
149 1 20.7833 5.88475 5.66406
312 1 8.7312 16.4496 19.8494
314 1 13.4893 16.5425 20.9221
316 1 17.4119 16.9034 20.7058
320 1 26.2736 17.1972 22.7472
5887 1 33.238 14.9326 20.1899
393 1 1.05844 19.1648 21.6478
395 1 5.81154 18.6172 22.7401
1613 1 7.0466 28.3035 9.76014
318 1 21.8404 16.5182 21.6389
5900 1 33.399 19.4457 20.5646
1549 1 21.2428 28.2133 5.88716
326 1 8.31811 21.2118 19.5921
328 1 12.6112 21.0681 20.3627
330 1 17.1503 21.3628 21.0342
332 1 21.8413 21.3517 21.9596
334 1 26.3173 21.7257 22.3037
349 1 28.8196 23.8803 19.7737
1623 1 29.6971 28.1713 13.3186
83 1 30.6616 6.48486 0.901535
1481 1 26.4233 28.2784 -0.266186
1551 1 25.8989 28.2882 7.07713
348 1 25.8762 26.1421 22.6191
46 1 10.5162 21.7683 -5.04742
352 1 3.44871 7.9728 25.4207
354 1 7.65709 7.85616 26.6829
6134 1 33.6408 10.2265 41.9522
641 1 23.1367 5.80253 48.7058
361 1 23.7619 5.87418 25.5221
366 1 3.36466 12.5855 25.1625
368 1 7.17823 12.3837 26.235
350 1 30.529 26.2194 23.3123
371 1 14.6832 10.0553 24.0299
373 1 19.1628 10.2362 24.357
375 1 23.8731 10.1504 24.8287
377 1 28.4175 9.73786 25.7028
633 1 3.30775 5.77163 47.7224
5939 1 32.9307 10.0348 26.8652
421 1 0.681626 5.89207 28.0804
385 1 14.8273 14.1187 23.568
387 1 19.1552 14.3615 24.4146
389 1 23.5055 14.2204 25.1616
391 1 28.0753 14.419 25.9275
5952 1 32.56 14.953 26.7832
380 1 2.43 17.0027 25.6085
382 1 8.06922 17.0987 26.1399
399 1 14.3289 18.9741 23.8045
401 1 18.8243 19.0739 24.4532
403 1 23.6518 18.9693 25.1964
405 1 28.178 18.8895 25.7537
5965 1 32.8712 18.8024 26.4746
397 1 10.05 18.8029 23.2326
394 1 3.47506 21.5546 25.1107
396 1 8.03621 21.3412 25.9644
411 1 11.0201 23.4564 23.3238
413 1 14.8169 23.8673 23.4959
415 1 18.8696 23.6996 24.7552
417 1 23.051 23.7006 25.1591
419 1 28.6878 23.7111 26
5978 1 32.7079 23.6235 26.373
408 1 3.36503 26.0392 24.8695
410 1 7.56088 25.8476 25.6009
477 1 0.901129 23.8665 28.0083
369 1 9.42219 10.0988 23.5647
1823 1 5.10815 27.4003 28.5937
356 1 12.0384 7.57879 26.537
358 1 16.9328 8.07629 27.1505
360 1 21.3032 8.15424 27.8132
362 1 25.4645 8.15783 29.0497
364 1 29.9739 7.52654 29.4406
6173 1 34.0174 24.3312 41.8923
435 1 0.989765 10.4473 28.3686
437 1 4.98506 10.0141 28.7776
439 1 9.72724 9.65928 30.0158
370 1 11.7888 12.5127 26.9321
372 1 16.4412 12.0455 27.6645
374 1 21.2199 12.1206 27.9922
376 1 25.8809 12.2045 28.5583
378 1 30.4521 12.1134 29.012
336 1 30.8337 21.6831 23.3533
451 1 4.97941 14.5666 28.6798
453 1 9.21796 14.712 30.0782
455 1 13.7364 14.3349 30.6427
388 1 20.9044 16.7222 28.1175
390 1 25.218 16.6596 29.0509
392 1 29.6605 16.8148 29.2947
294 1 31.0079 7.55949 23.8417
465 1 4.95451 19.3019 28.7818
467 1 9.11523 19.1536 29.6736
384 1 12.4158 16.7904 26.7542
386 1 16.0712 16.563 27.3304
479 1 5.42279 23.7183 29.1738
481 1 9.88087 23.7459 29.2034
398 1 12.1106 21.3894 26.5798
400 1 16.1758 21.0658 27.6761
402 1 20.8981 21.4754 27.8456
404 1 25.5038 21.4019 28.6432
406 1 30.0237 21.3943 29.2599
412 1 12.2104 26.0473 26.7924
414 1 17.0031 26.1217 27.1602
416 1 21.6294 26.2089 27.6579
418 1 26.2142 25.9082 28.7031
420 1 30.3018 26.1746 29.372
422 1 2.60751 7.97505 31.6307
424 1 6.94577 7.80767 32.351
308 1 31.1028 12.0378 23.1051
1969 1 17.3208 28.0862 42.8978
1831 1 22.9768 28.2143 31.4039
436 1 2.61094 12.0697 31.8217
438 1 7.08793 12.193 32.5398
440 1 11.4633 12.3881 33.3981
441 1 13.7123 9.83384 30.3344
443 1 18.6457 10.1899 30.84
445 1 22.95 9.9625 31.5224
447 1 27.6613 9.60487 31.9759
6004 1 32.429 10.1439 32.5128
457 1 18.4778 14.7447 30.7927
459 1 22.8283 14.5646 31.7561
461 1 27.6165 14.2841 32.1825
6017 1 32.2591 14.6412 32.4602
450 1 2.18626 16.7846 31.5878
452 1 6.69303 16.569 32.3216
454 1 11.239 17.0537 33.5518
469 1 13.8332 18.7251 30.0508
471 1 18.5431 19.0664 31.094
473 1 23.0112 19.156 31.4642
475 1 27.8924 19.1929 32.078
6030 1 32.2299 18.8904 32.5034
464 1 2.24277 22.0344 31.6191
466 1 7.10055 21.3673 32.3524
468 1 11.587 21.5468 32.9468
483 1 14.2326 23.9714 29.9272
485 1 18.9309 23.8357 30.5565
487 1 23.3343 23.85 31.0462
489 1 27.9187 23.5425 32.056
6043 1 31.8674 24.3401 32.6386
478 1 2.65012 25.8845 31.8245
480 1 7.47665 26.0219 31.295
482 1 11.8966 25.9107 32.8188
1893 1 4.62302 28.1406 34.3915
1833 1 27.5946 28.0503 32.0932
1829 1 18.6171 28.1814 31.034
426 1 11.7409 7.60129 32.8015
690 1 5.75605 25.9768 51.0225
428 1 16.3269 8.22167 33.3254
1895 1 9.38105 28.2327 34.8949
430 1 20.6384 8.09603 34.3532
432 1 25.2864 7.6285 34.5516
434 1 30.3556 7.58163 35.6734
1965 1 8.19334 28.0107 42.1093
507 1 4.34659 10.0011 35.7399
509 1 9.20695 10.1293 35.5477
511 1 13.7586 9.78841 36.6594
442 1 15.8828 11.9793 33.8992
444 1 19.641 12.3292 34.286
446 1 25.2039 12.2251 35.1138
448 1 29.8437 11.8623 35.4213
6069 1 33.5507 9.69041 36.9169
521 1 4.51361 14.7485 35.2666
523 1 8.469 14.6514 36.3049
525 1 13.6165 14.059 36.4379
456 1 16.1345 16.8922 34.379
458 1 20.6114 16.7177 34.5874
462 1 29.3368 16.4982 35.6259
535 1 4.01583 19.3734 35.0755
537 1 8.70867 19.293 35.3368
539 1 13.3311 18.7223 36.1716
460 1 25.1047 17.0896 34.9943
549 1 4.63551 23.6297 34.5189
551 1 8.85796 23.8203 36.0135
553 1 13.5837 23.4418 36.0213
470 1 15.9751 21.2805 33.4328
555 1 18.3217 23.7768 36.5767
472 1 20.5733 21.7499 34.3709
474 1 25.0869 20.6424 35.5836
476 1 29.7027 21.3121 35.6671
495 1 9.32491 6.24497 36.2292
322 1 31.1132 16.2751 23.1494
2039 1 17.0552 28.3845 49.6401
484 1 16.0971 25.6876 33.892
486 1 20.7944 25.5485 34.3817
488 1 25.4618 25.8078 34.8199
490 1 29.5716 25.6608 36.0369
1763 1 28.3737 28.195 25.6083
492 1 2.02506 7.81365 38.4059
494 1 6.69668 7.96539 38.3921
496 1 11.3088 8.2347 39.2741
498 1 15.6366 7.50235 40.3659
383 1 10.2358 14.1308 23.295
7356 1 33.3174 28.0824 37.3967
504 1 30.379 7.6547 39.7909
506 1 1.8687 12.1263 38.1299
508 1 6.50692 12.0208 38.4435
510 1 10.2507 12.6584 39.3407
513 1 17.661 10.3883 37.1546
512 1 14.8801 12.1522 40.2204
514 1 20.7845 12.2722 41.1982
515 1 22.416 9.56559 37.7552
517 1 26.895 9.47945 38.408
518 1 31.0344 12.42 39.8146
522 1 6.57144 17.3966 38.3409
527 1 18.1501 14.2712 37.5336
529 1 22.9036 14.0549 37.7975
531 1 27.6568 14.1514 38.3402
6082 1 33.2128 14.4115 37.3401
520 1 1.87397 16.6298 38.1157
524 1 11.3418 17.0428 39.0577
541 1 18.064 18.89 36.9127
543 1 22.1847 18.7382 37.6374
545 1 27.5517 18.8281 38.5991
6095 1 33.1964 18.768 37.2391
532 1 31.0464 17.0623 39.9923
534 1 1.9089 21.7228 37.4798
536 1 6.31904 21.1505 38.8323
538 1 11.3633 21.411 39.4153
540 1 15.5108 20.6885 39.5798
542 1 20.0816 21.5652 40.148
557 1 22.3722 24.4641 37.617
559 1 26.9041 23.5175 38.515
6108 1 33.12 24.3426 37.3437
546 1 31.5446 21.9895 39.9696
548 1 1.97173 25.9837 37.4779
550 1 6.48371 25.9208 38.1169
552 1 11.0124 26.1925 38.9643
554 1 15.3339 25.8999 39.5502
560 1 30.1348 26.3105 40.1457
700 1 32.806 25.8503 48.6491
500 1 20.1647 7.49137 40.4244
502 1 24.6181 7.6462 41.1307
499 1 18.217 5.70348 36.7599
574 1 31.6525 7.78321 44.0787
577 1 3.80268 9.94678 41.4749
579 1 8.53586 9.79086 42.2538
581 1 12.9632 10.5226 42.7874
583 1 18.3507 9.62165 43.3096
516 1 24.8733 12.2207 40.9083
587 1 27.8938 10.6866 42.9183
591 1 3.92051 14.4743 41.7184
593 1 8.88678 14.9392 42.3657
595 1 12.9361 14.5421 42.8753
597 1 17.494 14.3013 43.4814
530 1 25.0281 16.9722 40.9947
601 1 28.6808 14.6013 42.9082
605 1 3.7112 19.2358 41.5658
607 1 8.40923 19.6525 42.0216
609 1 12.9926 19.1067 42.5811
526 1 15.6247 16.4297 40.7914
611 1 17.8711 18.7394 43.0351
528 1 20.2168 16.9168 40.4024
613 1 22.2851 19.4587 43.8675
615 1 28.2333 19.0612 42.9664
619 1 3.96739 23.3524 41.0787
621 1 8.73241 24.1922 41.5895
623 1 13.065 23.5285 42.3765
625 1 17.5308 23.3792 42.9718
627 1 21.8999 24.096 43.8705
544 1 24.4375 21.6047 41.1064
629 1 28.1517 23.694 42.529
2037 1 12.4024 28.1277 49.1294
2041 1 23.5322 28.1426 47.988
1967 1 13.5861 28.1091 42.4796
556 1 19.9219 25.5967 40.5402
558 1 24.2244 26.3183 41.2696
562 1 1.61111 7.77899 43.7819
564 1 6.1539 7.81679 44.691
566 1 10.7575 7.8184 45.9371
568 1 15.1935 8.19132 46.1084
570 1 20.0607 8.68581 46.7929
572 1 26.1777 7.67656 45.786
657 1 29.4443 10.0798 47.3875
576 1 1.54316 12.5179 44.1645
578 1 5.53813 12.4834 44.9236
580 1 9.52978 12.2408 45.3002
582 1 14.7619 12.5738 46.4787
585 1 23.103 10.0761 44.6539
584 1 20.0873 13.0538 46.8761
586 1 26.3014 12.4877 45.9131
588 1 32.0071 12.49 44.3451
590 1 1.77253 16.7058 43.6474
592 1 6.51091 17.1837 44.3543
594 1 10.4853 16.6757 45.8198
596 1 15.0861 16.8618 46.3812
599 1 23.1264 14.9038 44.0623
598 1 19.798 16.9795 46.5452
600 1 25.9659 17.0952 45.6164
671 1 29.2017 14.3749 47.6563
675 1 3.65916 18.8052 47.564
685 1 28.6922 19.1111 47.6987
602 1 32.1043 17.0191 44.8924
604 1 2.19699 21.1716 44.7546
606 1 6.27976 21.7386 44.6224
608 1 9.9544 21.0416 45.5012
610 1 15.2253 21.6198 45.9867
612 1 20.0706 21.712 46.4343
614 1 25.7526 21.7536 45.6288
699 1 29.2699 23.8962 47.6794
616 1 31.1972 21.8322 44.6043
618 1 1.47257 25.8591 44.0393
620 1 6.12038 25.7137 45.2927
622 1 10.2787 25.6279 45.6949
624 1 15.0673 25.7882 46.1167
626 1 19.4758 25.8553 46.6729
628 1 25.8232 26.3879 45.4105
630 1 31.008 26.1319 44.7206
632 1 1.19888 7.98333 50.5481
686 1 32.7846 21.11 48.6477
698 1 26.7215 26.0652 50.6319
642 1 26.885 7.61978 50.3586
644 1 33.2927 7.92751 48.4254
647 1 3.92761 10.475 47.9011
646 1 0.827827 12.557 50.5701
649 1 8.04996 10.0552 48.2443
651 1 11.8446 10.1424 48.9945
653 1 17.0015 10.0341 49.9085
655 1 23.5655 10.5007 48.6237
656 1 26.8984 12.5032 50.681
658 1 32.7395 12.4007 49.8628
660 1 0.750917 17.0683 50.6369
661 1 3.4996 14.7927 47.3422
663 1 8.09726 14.5933 48.0903
665 1 12.3811 14.7999 49.5758
667 1 16.9979 14.9625 49.844
669 1 23.0631 14.5905 48.5917
670 1 26.6243 17.0351 50.3114
672 1 32.9084 16.9235 49.0452
662 1 5.31445 17.3753 51.0118
677 1 7.63065 19.1806 48.5666
679 1 12.6236 19.5034 49.0289
681 1 17.2589 19.5565 49.4954
1825 1 9.94422 28.1194 29.1878
683 1 23.3325 19.4325 48.5436
689 1 3.46351 24.1175 47.8288
674 1 1.76588 20.6545 50.5005
2033 1 3.77212 28.1859 48.1641
691 1 7.97476 23.8998 48.4774
693 1 12.5238 23.5356 48.2252
695 1 17.2734 23.777 49.7676
697 1 23.5361 24.2154 47.727
684 1 26.4645 21.6526 49.6584
1757 1 14.6568 28.3064 23.7585
1897 1 13.6251 28.3217 36.221
7226 1 32.6202 28.1685 26.802
1759 1 19.4301 28.3126 25.0957
2035 1 8.31081 28.1337 48.737
634 1 5.74504 8.38692 50.9392
381 1 5.86171 14.7075 23.0269
853 1 32.9081 5.74105 60.7805
636 1 10.2045 7.72714 51.6373
638 1 14.7013 7.9996 52.5694
714 1 33.2581 7.97738 52.8002
717 1 2.73197 10.5765 53.7536
954 1 0.833057 21.5589 73.7777
719 1 7.13594 9.62341 54.4516
650 1 9.72178 12.4635 52.0733
652 1 14.6125 12.594 51.9471
723 1 18.3612 10.041 54.4981
1114 1 21.5588 26.015 78.9534
725 1 24.1044 9.83444 53.3326
726 1 28.722 12.6229 55.0005
727 1 29.5277 9.92225 52.1449
728 1 33.9144 12.0268 53.6588
731 1 2.76533 14.9535 54.0324
664 1 9.80393 17.2555 51.8534
666 1 14.6073 17.1247 52.5518
737 1 17.9498 14.9697 54.1892
739 1 24.3122 14.4597 53.1856
741 1 30.2488 14.5485 52.0515
696 1 20.7462 25.9182 51.2476
745 1 3.20568 19.6798 54.6607
747 1 7.87177 18.8764 54.8207
751 1 17.6436 18.7919 54.312
753 1 24.8713 19.2577 52.956
740 1 27.6867 17.1481 54.9634
755 1 30.3459 19.2296 52.1509
759 1 2.8536 24.1562 53.5352
761 1 7.34023 23.4473 54.5207
678 1 10.1101 21.1218 51.4478
680 1 15.376 21.4745 52.1047
765 1 18.097 23.6731 54.3405
983 1 4.34916 6.20931 75.1079
767 1 23.8956 23.8747 52.7763
754 1 27.4803 21.3382 54.5408
769 1 30.4224 23.9328 51.6
1118 1 31.8871 26.2707 78.4676
676 1 6.05393 21.312 51.6488
912 1 0.555179 8.54132 73.5484
692 1 10.5281 25.6928 51.8787
694 1 14.7796 25.7208 52.3944
940 1 0.840192 16.9936 73.7702
742 1 33.5854 16.3219 53.8262
704 1 4.60432 8.257 57.4307
703 1 2.43467 5.65627 53.2917
708 1 15.2609 7.72291 57.1852
682 1 20.0674 21.649 51.5131
710 1 21.2148 7.76301 55.6457
712 1 27.8696 7.9247 54.8901
668 1 20.8101 17.0368 51.2071
718 1 4.96277 12.6623 57.4404
721 1 11.8657 9.78334 54.517
720 1 9.47225 11.7613 57.9587
722 1 14.9595 12.4095 56.6841
724 1 21.4641 12.4023 55.9535
795 1 25.3287 10.4676 57.7264
797 1 31.4345 10.3196 56.2843
733 1 7.20529 14.6907 55.133
735 1 11.6497 14.4504 54.807
809 1 25.6702 15.0678 57.5398
811 1 31.4526 15.0291 56.7379
732 1 4.63051 17.312 57.7546
749 1 11.9074 18.8222 55.3114
736 1 15.34 16.2474 57.3531
738 1 21.7385 17.0898 55.7934
823 1 24.6024 19.5148 56.9508
825 1 31.1046 19.529 56.4005
730 1 0.898847 17.3879 56.7606
746 1 4.74164 21.9202 57.2981
748 1 9.33162 21.5228 58.0709
763 1 12.153 23.5494 54.7926
750 1 15.0407 21.2159 56.9094
752 1 21.0024 21.6021 55.7184
824 1 27.8605 20.778 58.4942
839 1 31.5204 23.4713 56.1299
640 1 20.4942 7.7201 50.966
760 1 4.53122 25.8482 57.0884
762 1 9.53777 26.0816 58.5021
764 1 15.5433 25.8314 56.8823
766 1 21.6762 25.9853 56.046
837 1 25.9482 23.8786 58.0886
768 1 27.9565 25.8022 54.4121
2177 1 13.3704 27.9311 60.3482
1103 1 29.4487 19.4636 75.5065
1077 1 33.9981 9.59271 76.3439
706 1 9.15477 7.64792 57.7151
1101 1 23.6002 18.8019 76.2865
778 1 16.1072 7.85461 60.9605
780 1 23.143 7.73075 60.1978
782 1 28.8913 7.49826 59.0416
787 1 2.25326 10.0978 59.6709
791 1 12.6448 9.84714 59.0911
793 1 18.8648 10.2893 58.3402
794 1 22.9884 12.2669 60.1836
865 1 26.5998 10.3181 62.2522
796 1 29.1573 12.8717 58.9809
867 1 32.4313 10.0137 60.8646
801 1 2.65197 14.93 59.7032
803 1 6.91242 14.5412 60.7228
734 1 9.88119 16.8152 58.1814
805 1 12.8257 14.2738 59.3843
806 1 16.3582 16.5495 61.9009
807 1 19.1504 14.5064 58.6657
808 1 22.0042 16.9697 60.0046
879 1 26.3629 14.9309 62.0361
881 1 33.0298 14.4652 60.9243
815 1 2.07989 19.4638 60.5079
817 1 7.40751 19.2911 61.2751
819 1 13.0236 18.8565 60.3861
821 1 18.5164 19.058 58.6414
810 1 29.2372 16.6698 59.5116
894 1 29.3206 20.9209 62.3703
895 1 33.2349 18.6679 60.6701
829 1 2.31573 23.9389 60.2838
831 1 6.97687 23.9835 60.6213
833 1 13.1751 23.3486 60.0012
835 1 18.2519 23.8025 58.6788
820 1 16.0811 21.3609 61.9405
822 1 22.2546 21.5338 59.3299
907 1 25.609 23.3847 62.2018
909 1 32.9152 23.9678 60.769
834 1 16.5206 25.997 61.3425
836 1 22.3981 26.1513 60.0246
838 1 28.6922 26.5359 59.0475
1061 1 29.7879 5.79275 74.9361
774 1 3.64463 7.74304 63.4566
776 1 10.7429 7.69488 62.1352
1116 1 26.3636 26.568 77.6324
850 1 23.5081 7.96088 64.8078
852 1 29.9362 8.40231 63.2709
788 1 4.55429 12.3797 63.475
789 1 6.70867 10.0156 61.0043
790 1 10.6241 12.055 62.3735
861 1 13.8048 10.127 64.5166
792 1 16.5666 11.9348 61.1266
863 1 19.5292 9.93431 62.5809
864 1 23.4006 12.4771 64.6281
866 1 29.9432 12.3998 63.3283
937 1 33.7396 10.4933 65.3427
804 1 10.6635 16.8984 62.6307
875 1 13.9799 14.9218 64.3503
877 1 20.2449 14.0571 63.2029
878 1 23.1661 16.6871 64.1367
951 1 33.5785 14.7991 64.9282
802 1 4.58895 16.9819 63.9961
887 1 7.69223 18.935 65.6197
889 1 13.8021 19.5589 64.4886
891 1 19.67 19.7688 62.8178
893 1 25.2325 19.1114 60.6945
880 1 29.6216 16.7494 63.2416
963 1 26.2948 19.6932 64.531
965 1 33.4258 18.6559 64.7532
816 1 4.3521 21.5135 63.575
818 1 10.6658 21.6625 62.9954
901 1 8.02095 24.0813 65.3616
903 1 14.1794 23.7458 64.5161
905 1 19.7437 24.2514 63.2632
892 1 22.8942 21.5767 64.0416
964 1 32.0635 22.6585 64.4947
830 1 4.21278 25.8154 63.8107
832 1 10.734 26.3096 62.9837
1091 1 33.7778 14.6342 75.5357
1119 1 34.2517 24.408 75.1489
1090 1 31.7035 17.37 78.2269
1039 1 3.63151 24.1523 75.447
906 1 23.8828 25.5498 64.4743
908 1 29.0457 25.4926 62.8892
2253 1 32.9488 28.0851 60.6812
844 1 5.09571 8.33666 67.7642
846 1 11.5035 7.96402 66.9045
848 1 17.4021 7.64227 65.4891
648 1 5.6755 12.6811 51.475
985 1 9.59448 5.84258 74.2088
922 1 31.164 8.95068 67.8342
857 1 1.38964 10.1997 66.3272
858 1 5.41318 12.2227 67.7038
859 1 7.75204 10.1328 65.5913
860 1 11.2833 12.5942 67.2429
931 1 15.1361 10.5239 69.104
862 1 17.5535 12.3611 65.6467
933 1 21.3056 10.2886 67.8676
935 1 26.9939 10.4907 66.2987
936 1 30.6582 12.9242 67.8459
871 1 2.21451 14.8896 66.3585
873 1 7.76957 14.4621 65.568
872 1 5.12372 17.2723 68.5982
876 1 17.5282 17.0447 65.8407
947 1 21.2032 14.8355 67.648
949 1 27.0267 15.1118 65.8157
885 1 2.0902 19.6894 66.9804
874 1 11.3281 17.1011 67.4112
959 1 15.2656 19.2191 69.0469
961 1 21.3092 19.5754 67.3302
948 1 24.7371 17.498 68.8255
1033 1 28.6101 18.4171 67.393
950 1 31.4692 16.7802 68.6782
899 1 2.04636 24.1292 66.449
886 1 5.26448 21.6352 68.1285
888 1 11.0787 21.8663 67.4257
973 1 15.2177 23.9332 68.935
890 1 17.8943 21.2504 66.0902
975 1 21.4337 24.3403 67.0254
977 1 27.8347 23.6143 66.1456
770 1 33.606 26.6256 53.2724
654 1 20.9167 12.3769 51.3345
900 1 5.42283 26.1653 68.3849
902 1 11.6449 26.5705 67.3844
904 1 17.3611 25.9333 65.9213
2107 1 11.9203 28.1501 55.782
978 1 31.4419 25.8063 67.8828
1113 1 17.3025 23.6077 77.32
1104 1 31.9059 21.7767 78.4186
916 1 11.9445 8.14255 71.7419
918 1 18.6149 7.84723 70.035
920 1 24.4527 8.01667 69.5218
992 1 31.7354 8.21156 72.482
927 1 2.93028 10.1924 71.1472
929 1 9.0615 10.4871 70.0121
930 1 12.3594 12.7339 71.7215
932 1 18.4244 12.3028 70.4388
1003 1 22.1669 10.183 71.5569
934 1 25.0508 12.678 69.1216
1005 1 28.4984 10.2614 70.9605
1006 1 31.6293 12.2656 72.3104
941 1 2.74573 14.9789 71.0282
943 1 8.25916 14.9262 70.1871
944 1 13.0331 16.8844 71.9552
945 1 14.7659 15.1241 68.2674
1017 1 21.8899 15.1004 71.5454
1019 1 28.2213 15.3441 70.97
955 1 2.21725 19.4813 70.8538
942 1 6.69148 17.3689 72.6218
957 1 9.00474 19.2662 69.8655
946 1 18.5469 17.0753 70.4901
1031 1 22.0296 19.66 71.9755
1020 1 28.3036 19.1824 71.3647
969 1 3.2787 24.0756 71.0102
971 1 8.90727 23.7978 69.9055
958 1 12.4729 21.768 71.9038
960 1 18.981 21.7321 70.8789
1045 1 22.5157 24.3677 72.1596
962 1 25.0859 21.8718 69.1795
1047 1 28.6173 23.7215 70.6632
1035 1 30.8049 21.5184 68.2303
1111 1 11.4102 24.4097 79.025
1024 1 1.85378 21.7275 78.4039
972 1 12.1158 25.7351 72.0478
974 1 18.4916 25.8444 69.9361
2387 1 16.9052 28.3392 72.6938
976 1 25.1358 26.592 68.9777
1040 1 7.62724 26.2133 77.0145
1100 1 20.8861 21.149 79.0565
914 1 6.51638 8.08395 71.7548
2181 1 25.4206 28.4982 57.2136
1026 1 7.33045 21.7897 76.7755
1038 1 1.07575 25.9384 78.0893
988 1 19.9258 7.6925 74.9783
990 1 26.0061 8.02937 73.5414
1097 1 11.0342 19.8289 78.8158
928 1 5.84898 12.8177 72.3233
999 1 9.45882 10.4839 74.7108
1000 1 13.6681 12.3512 75.7697
1001 1 16.2092 9.59813 73.0135
1002 1 20.0021 12.407 74.8204
1004 1 25.4775 12.4818 73.6554
1075 1 29.3372 10.3174 75.8995
1011 1 4.63992 14.8484 75.6876
1013 1 9.87839 14.5248 73.9148
1015 1 16.0676 14.5981 73.7492
1018 1 25.4494 16.8458 73.4175
1089 1 29.2147 14.7006 75.3308
851 1 26.2146 5.87015 62.348
1025 1 3.79711 19.43 74.9974
1027 1 9.83344 19.146 74.4824
1014 1 13.6921 17.4018 76.3089
1029 1 16.0163 19.1404 73.5935
1016 1 19.3835 17.1424 74.8993
1022 1 32.2655 16.9864 72.5646
1102 1 27.5483 21.9879 77.7094
956 1 6.13291 21.6265 72.6457
1041 1 10.3389 24.169 75.2304
1028 1 13.0597 21.6615 76.4724
1043 1 16.1871 23.7496 73.4929
1030 1 20.1213 21.7773 75.1359
1032 1 25.9518 21.549 73.7229
1117 1 29.5198 24.2303 75.0497
1034 1 32.0913 21.6075 72.6636
1088 1 27.577 16.7906 77.8905
970 1 6.83784 26.3238 73.1018
2111 1 24.0374 28.3299 52.5929
921 1 27.7242 6.12404 66.3958
1042 1 13.9164 26.5931 76.0081
1044 1 19.8093 26.4545 74.6883
1046 1 26.8232 26.3629 73.0315
1048 1 32.4284 26.5014 72.2467
982 1 1.97801 8.32939 78.6004
984 1 8.01096 8.26246 77.4764
986 1 12.8954 8.64476 76.2417
1115 1 23.7667 24.0944 76.3675
2321 1 26.7084 28.3024 65.768
1060 1 26.8569 8.17056 77.9847
1062 1 31.3902 7.80504 78.7202
997 1 4.42491 9.89823 75.6227
996 1 1.70781 12.2833 78.3515
998 1 7.44186 12.675 78.2495
1069 1 10.8763 10.5415 79.1717
1071 1 17.2587 9.60866 77.2887
2179 1 18.8679 27.8297 58.9893
1073 1 23.2217 10.2629 75.8293
1074 1 27.0745 12.8413 77.8249
1076 1 31.691 12.6271 78.8593
1010 1 1.60461 17.0811 78.3985
917 1 14.4667 5.9684 68.5217
1085 1 17.5512 13.8135 77.5821
1087 1 22.8111 14.5775 76.3416
1012 1 7.73622 17.0763 77.2621
2109 1 17.4795 28.283 53.5002
1099 1 16.9985 19.2578 77.5947
2105 1 7.26706 27.9376 55.1109
2243 1 2.2167 28.3546 66.8134
2457 1 17.559 28.1292 77.5842
2183 1 31.6277 28.2979 56.1823
2113 1 30.524 28.4638 51.7106
2245 1 7.5352 28.4058 65.7204
991 1 28.7986 5.88583 70.4235
705 1 6.84027 5.8875 54.302
993 1 34.1567 5.98024 69.9772
775 1 6.88258 5.82557 60.6441
781 1 25.488 5.85251 57.7047
1072 1 21.6055 12.1043 79.2568
1058 1 20.8892 7.70705 79.1203
688 1 0.62656 26.3835 51.0563
1052 1 2.27215 7.40237 82.9743
1054 1 8.3808 7.94323 81.5233
1056 1 14.5317 7.79968 80.615
1343 1 31.7881 6.42203 101.725
58 1 5.80048 26.2323 106.832
1066 1 2.4973 12.205 82.9599
1067 1 5.35241 10.0089 79.9723
1068 1 9.13494 12.3814 82.5659
1070 1 14.8232 12.2725 80.3935
1141 1 18.7191 10.0757 81.4793
1143 1 24.4414 10.0216 80.4261