BEGIN_CFG
 Size
    1
 Supercell
         4.606222      4.606278      4.606206
        -4.606214      4.606238      4.606214
        -4.606206     -4.606246      4.606222
 AtomData:  id type       cartes_x      cartes_y      cartes_z           fx          fy          fz
             1    0       0.000000      0.000000      0.000000     0.000000    0.000000    0.000000
 Energy
        -13.082399963363
 PlusStress:  xx          yy          zz          yz          xz          xy
        -0.38226    -0.38226    -0.38226     0.00000    -0.00000    -0.00000
 Feature   EFS_by	Qe
 Feature   mindist	7.978201
END_CFG

BEGIN_CFG
 Size
    1
 Supercell
         4.734175      4.734232      4.734150
        -4.734158      4.734191      4.734158
        -4.734150     -4.734199      4.734175
 AtomData:  id type       cartes_x      cartes_y      cartes_z           fx          fy          fz
             1    0       0.000000      0.000000      0.000000     0.000000    0.000000    0.000000
 Energy
        -13.053310175362
 PlusStress:  xx          yy          zz          yz          xz          xy
        -0.32227    -0.32227    -0.32227     0.00000    -0.00000     0.00000
 Feature   EFS_by	Qe
 Feature   mindist	8.199822
END_CFG

BEGIN_CFG
 Size
    1
 Supercell
         4.350321      4.350374      4.350306
        -4.350306      4.350336      4.350313
        -4.350306     -4.350344      4.350321
 AtomData:  id type       cartes_x      cartes_y      cartes_z           fx          fy          fz
             1    0       0.000000      0.000000      0.000000     0.000000    0.000000    0.000000
 Energy
        -13.157667065278
 PlusStress:  xx          yy          zz          yz          xz          xy
        -0.48894    -0.48894    -0.48894     0.00000    -0.00000     0.00000
 Feature   EFS_by	Qe
 Feature   mindist	7.534964
END_CFG

BEGIN_CFG
 Size
    1
 Supercell
         4.478265      4.478327      4.478249
        -4.478265      4.478288      4.478265
        -4.478249     -4.478303      4.478265
 AtomData:  id type       cartes_x      cartes_y      cartes_z           fx          fy          fz
             1    0       0.000000      0.000000      0.000000     0.000000    0.000000    0.000000
 Energy
        -13.117152985024
 PlusStress:  xx          yy          zz          yz          xz          xy
        -0.43869    -0.43869    -0.43869     0.00000     0.00000    -0.00000
 Feature   EFS_by	Qe
 Feature   mindist	7.756582
END_CFG

BEGIN_CFG
 Size
    1
 Supercell
         4.094420      4.094463      4.094406
        -4.094406      4.094434      4.094413
        -4.094406     -4.094449      4.094420
 AtomData:  id type       cartes_x      cartes_y      cartes_z           fx          fy          fz
             1    0       0.000000      0.000000      0.000000     0.000000    0.000000    0.000000
 Energy
        -13.255754315796
 PlusStress:  xx          yy          zz          yz          xz          xy
        -0.58056    -0.58056    -0.58056     0.00000     0.00000     0.00000
 Feature   EFS_by	Qe
 Feature   mindist	7.091740
END_CFG

BEGIN_CFG
 Size
    1
 Supercell
         1.151554      1.151570      1.151554
        -1.151554      1.151558      1.151554
        -1.151548     -1.151564      1.151554
 AtomData:  id type       cartes_x      cartes_y      cartes_z           fx          fy          fz
             1    0       0.000000      0.000000      0.000000     0.000000    0.000000    0.000000
 Energy
        -10.431819940660
 PlusStress:  xx          yy          zz          yz          xz          xy
         1.15872     1.15986     1.15871     0.00026     0.00023     0.00019
 Feature   EFS_by	Qe
 Feature   mindist	1.994552
END_CFG

BEGIN_CFG
 Size
    1
 Supercell
         4.222372      4.222423      4.222350
        -4.222357      4.222386      4.222364
        -4.222350     -4.222394      4.222372
 AtomData:  id type       cartes_x      cartes_y      cartes_z           fx          fy          fz
             1    0       0.000000      0.000000      0.000000     0.000000    0.000000    0.000000
 Energy
        -13.203931047455
 PlusStress:  xx          yy          zz          yz          xz          xy
        -0.53801    -0.53801    -0.53801     0.00000     0.00000     0.00000
 Feature   EFS_by	Qe
 Feature   mindist	7.313350
END_CFG

BEGIN_CFG
 Size
    1
 Supercell
         1.279503      1.279525      1.279503
        -1.279503      1.279507      1.279503
        -1.279503     -1.279514      1.279507
 AtomData:  id type       cartes_x      cartes_y      cartes_z           fx          fy          fz
             1    0       0.000000      0.000000      0.000000     0.000000    0.000000    0.000000
 Energy
        -10.523269653843
 PlusStress:  xx          yy          zz          yz          xz          xy
        -0.29140    -0.29105    -0.29129     0.00012     0.00002     0.00038
 Feature   EFS_by	Qe
 Feature   mindist	2.216162
END_CFG

BEGIN_CFG
 Size
    1
 Supercell
         3.838513      3.838566      3.838506
        -3.838506      3.838533      3.838506
        -3.838506     -3.838539      3.838519
 AtomData:  id type       cartes_x      cartes_y      cartes_z           fx          fy          fz
             1    0       0.000000      0.000000      0.000000     0.000000    0.000000    0.000000
 Energy
        -13.374941138982
 PlusStress:  xx          yy          zz          yz          xz          xy
        -0.64309    -0.64309    -0.64309    -0.00000    -0.00000    -0.00000
 Feature   EFS_by	Qe
 Feature   mindist	6.648499
END_CFG

BEGIN_CFG
 Size
    1
 Supercell
         3.966471      3.966519      3.966450
        -3.966457      3.966485      3.966464
        -3.966450     -3.966491      3.966471
 AtomData:  id type       cartes_x      cartes_y      cartes_z           fx          fy          fz
             1    0       0.000000      0.000000      0.000000     0.000000    0.000000    0.000000
 Energy
        -13.312770605047
 PlusStress:  xx          yy          zz          yz          xz          xy
        -0.60941    -0.60941    -0.60941    -0.00000     0.00000     0.00000
 Feature   EFS_by	Qe
 Feature   mindist	6.870117
END_CFG

BEGIN_CFG
 Size
    1
 Supercell
         1.023603      1.023619      1.023603
        -1.023603      1.023608      1.023603
        -1.023597     -1.023608      1.023603
 AtomData:  id type       cartes_x      cartes_y      cartes_z           fx          fy          fz
             1    0       0.000000      0.000000      0.000000     0.000000    0.000000    0.000000
 Energy
        -10.619045705290
 PlusStress:  xx          yy          zz          yz          xz          xy
        -2.19310    -2.18909    -2.19311     0.00061     0.00030     0.00032
 Feature   EFS_by	Qe
 Feature   mindist	1.772932
END_CFG

BEGIN_CFG
 Size
    1
 Supercell
         4.990069      4.990138      4.990060
        -4.990060      4.990095      4.990069
        -4.990051     -4.990103      4.990069
 AtomData:  id type       cartes_x      cartes_y      cartes_z           fx          fy          fz
             1    0       0.000000      0.000000      0.000000     0.000000    0.000000    0.000000
 Energy
        -13.010690342001
 PlusStress:  xx          yy          zz          yz          xz          xy
        -0.21722    -0.21722    -0.21722     0.00000    -0.00000     0.00000
 Feature   EFS_by	Qe
 Feature   mindist	8.643047
END_CFG

BEGIN_CFG
 Size
    1
 Supercell
         4.862124      4.862183      4.862099
        -4.862116      4.862141      4.862116
        -4.862099     -4.862150      4.862124
 AtomData:  id type       cartes_x      cartes_y      cartes_z           fx          fy          fz
             1    0       0.000000      0.000000      0.000000     0.000000    0.000000    0.000000
 Energy
        -13.029570554023
 PlusStress:  xx          yy          zz          yz          xz          xy
        -0.26679    -0.26679    -0.26679     0.00000    -0.00000    -0.00000
 Feature   EFS_by	Qe
 Feature   mindist	8.421437
END_CFG

BEGIN_CFG
 Size
    1
 Supercell
         5.373896      5.374008      5.373896
        -5.373896      5.373952      5.373896
        -5.373896     -5.373952      5.373896
 AtomData:  id type       cartes_x      cartes_y      cartes_z           fx          fy          fz
             1    0       0.000000      0.000000      0.000000     0.000000    0.000000    0.000000
 Energy
        -12.975351595256
 PlusStress:  xx          yy          zz          yz          xz          xy
        -0.11285    -0.11285    -0.11285     0.00000    -0.00000     0.00000
 Feature   EFS_by	Qe
 Feature   mindist	9.307861
END_CFG

BEGIN_CFG
 Size
    1
 Supercell
         2.686962      2.686995      2.686948
        -2.686957      2.686971      2.686957
        -2.686948     -2.686976      2.686962
 AtomData:  id type       cartes_x      cartes_y      cartes_z           fx          fy          fz
             1    0       0.000000      0.000000      0.000000     0.000000    0.000000    0.000000
 Energy
        -13.972213646929
 PlusStress:  xx          yy          zz          yz          xz          xy
        -0.21459    -0.21452    -0.21459    -0.00000    -0.00000     0.00000
 Feature   EFS_by	Qe
 Feature   mindist	4.653949
END_CFG

BEGIN_CFG
 Size
    1
 Supercell
         5.501860      5.501964      5.501860
        -5.501860      5.501907      5.501860
        -5.501860     -5.501907      5.501860
 AtomData:  id type       cartes_x      cartes_y      cartes_z           fx          fy          fz
             1    0       0.000000      0.000000      0.000000     0.000000    0.000000    0.000000
 Energy
        -12.968355139738
 PlusStress:  xx          yy          zz          yz          xz          xy
        -0.09114    -0.09114    -0.09114     0.00000     0.00000     0.00000
 Feature   EFS_by	Qe
 Feature   mindist	9.529495
END_CFG

BEGIN_CFG
 Size
    1
 Supercell
         2.559012      2.559043      2.558999
        -2.559003      2.559021      2.559003
        -2.558999     -2.559026      2.559012
 AtomData:  id type       cartes_x      cartes_y      cartes_z           fx          fy          fz
             1    0       0.000000      0.000000      0.000000     0.000000    0.000000    0.000000
 Energy
        -13.988892185708
 PlusStress:  xx          yy          zz          yz          xz          xy
        -0.00302    -0.00302    -0.00302     0.00000     0.00000    -0.00000
 Feature   EFS_by	Qe
 Feature   mindist	4.432334
END_CFG

BEGIN_CFG
 Size
    1
 Supercell
         2.942863      2.942898      2.942847
        -2.942858      2.942878      2.942863
        -2.942847     -2.942883      2.942868
 AtomData:  id type       cartes_x      cartes_y      cartes_z           fx          fy          fz
             1    0       0.000000      0.000000      0.000000     0.000000    0.000000    0.000000
 Energy
        -13.873661353823
 PlusStress:  xx          yy          zz          yz          xz          xy
        -0.48140    -0.48140    -0.48149    -0.00000     0.00000     0.00000
 Feature   EFS_by	Qe
 Feature   mindist	5.097188
END_CFG

BEGIN_CFG
 Size
    1
 Supercell
         5.118018      5.118089      5.118009
        -5.118009      5.118044      5.118018
        -5.118000     -5.118053      5.118018
 AtomData:  id type       cartes_x      cartes_y      cartes_z           fx          fy          fz
             1    0       0.000000      0.000000      0.000000     0.000000    0.000000    0.000000
 Energy
        -12.995839183851
 PlusStress:  xx          yy          zz          yz          xz          xy
        -0.17528    -0.17528    -0.17528     0.00000     0.00000    -0.00000
 Feature   EFS_by	Qe
 Feature   mindist	8.864662
END_CFG

BEGIN_CFG
 Size
    1
 Supercell
         2.814908      2.814947      2.814898
        -2.814903      2.814928      2.814908
        -2.814898     -2.814933      2.814908
 AtomData:  id type       cartes_x      cartes_y      cartes_z           fx          fy          fz
             1    0       0.000000      0.000000      0.000000     0.000000    0.000000    0.000000
 Energy
        -13.930881864526
 PlusStress:  xx          yy          zz          yz          xz          xy
        -0.36928    -0.36936    -0.36928     0.00000     0.00000     0.00000
 Feature   EFS_by	Qe
 Feature   mindist	4.875564
END_CFG

BEGIN_CFG
 Size
    1
 Supercell
         5.245976      5.246040      5.245958
        -5.245958      5.245994      5.245967
        -5.245949     -5.246003      5.245976
 AtomData:  id type       cartes_x      cartes_y      cartes_z           fx          fy          fz
             1    0       0.000000      0.000000      0.000000     0.000000    0.000000    0.000000
 Energy
        -12.984306046055
 PlusStress:  xx          yy          zz          yz          xz          xy
        -0.14051    -0.14051    -0.14051    -0.00000    -0.00000     0.00000
 Feature   EFS_by	Qe
 Feature   mindist	9.086287
END_CFG

BEGIN_CFG
 Size
    1
 Supercell
         3.198767      3.198800      3.198756
        -3.198756      3.198778      3.198761
        -3.198750     -3.198783      3.198767
 AtomData:  id type       cartes_x      cartes_y      cartes_z           fx          fy          fz
             1    0       0.000000      0.000000      0.000000     0.000000    0.000000    0.000000
 Energy
        -13.734267763547
 PlusStress:  xx          yy          zz          yz          xz          xy
        -0.61449    -0.61449    -0.61461    -0.00000     0.00000    -0.00000
 Feature   EFS_by	Qe
 Feature   mindist	5.540423
END_CFG

BEGIN_CFG
 Size
    1
 Supercell
         5.885725      5.885776      5.885725
        -5.885725      5.885776      5.885725
        -5.885725     -5.885776      5.885725
 AtomData:  id type       cartes_x      cartes_y      cartes_z           fx          fy          fz
             1    0       0.000000      0.000000      0.000000     0.000000    0.000000    0.000000
 Energy
        -12.955136528692
 PlusStress:  xx          yy          zz          yz          xz          xy
        -0.04792    -0.04792    -0.04792     0.00000    -0.00000     0.00000
 Feature   EFS_by	Qe
 Feature   mindist	10.194405
END_CFG

BEGIN_CFG
 Size
    1
 Supercell
         3.070818      3.070855      3.070807
        -3.070807      3.070828      3.070812
        -3.070802     -3.070833      3.070818
 AtomData:  id type       cartes_x      cartes_y      cartes_z           fx          fy          fz
             1    0       0.000000      0.000000      0.000000     0.000000    0.000000    0.000000
 Energy
        -13.806676309360
 PlusStress:  xx          yy          zz          yz          xz          xy
        -0.56079    -0.56079    -0.56079    -0.00000    -0.00000     0.00000
 Feature   EFS_by	Qe
 Feature   mindist	5.318806
END_CFG

BEGIN_CFG
 Size
    1
 Supercell
         5.629814      5.629921      5.629814
        -5.629814      5.629863      5.629814
        -5.629814     -5.629863      5.629814
 AtomData:  id type       cartes_x      cartes_y      cartes_z           fx          fy          fz
             1    0       0.000000      0.000000      0.000000     0.000000    0.000000    0.000000
 Energy
        -12.962873678137
 PlusStress:  xx          yy          zz          yz          xz          xy
        -0.07340    -0.07340    -0.07340     0.00000     0.00000     0.00000
 Feature   EFS_by	Qe
 Feature   mindist	9.751118
END_CFG

BEGIN_CFG
 Size
    1
 Supercell
         1.535408      1.535424      1.535403
        -1.535403      1.535413      1.535403
        -1.535403     -1.535418      1.535408
 AtomData:  id type       cartes_x      cartes_y      cartes_z           fx          fy          fz
             1    0       0.000000      0.000000      0.000000     0.000000    0.000000    0.000000
 Energy
        -10.491418590445
 PlusStress:  xx          yy          zz          yz          xz          xy
         1.87245     1.87206     1.87257    -0.00007    -0.00003     0.00003
 Feature   EFS_by	Qe
 Feature   mindist	2.659401
END_CFG

BEGIN_CFG
 Size
    1
 Supercell
         3.454668      3.454709      3.454656
        -3.454662      3.454680      3.454662
        -3.454650     -3.454686      3.454668
 AtomData:  id type       cartes_x      cartes_y      cartes_z           fx          fy          fz
             1    0       0.000000      0.000000      0.000000     0.000000    0.000000    0.000000
 Energy
        -13.584806776784
 PlusStress:  xx          yy          zz          yz          xz          xy
        -0.66506    -0.66506    -0.66506    -0.00000     0.00000     0.00000
 Feature   EFS_by	Qe
 Feature   mindist	5.983656
END_CFG

BEGIN_CFG
 Size
    1
 Supercell
         5.757768      5.757868      5.757768
        -5.757768      5.757818      5.757768
        -5.757768     -5.757818      5.757768
 AtomData:  id type       cartes_x      cartes_y      cartes_z           fx          fy          fz
             1    0       0.000000      0.000000      0.000000     0.000000    0.000000    0.000000
 Energy
        -12.958547748044
 PlusStress:  xx          yy          zz          yz          xz          xy
        -0.05959    -0.05889    -0.05959    -0.00000    -0.00000    -0.00000
 Feature   EFS_by	Qe
 Feature   mindist	9.972747
END_CFG

BEGIN_CFG
 Size
    1
 Supercell
         3.326712      3.326759      3.326707
        -3.326712      3.326724      3.326712
        -3.326701     -3.326736      3.326712
 AtomData:  id type       cartes_x      cartes_y      cartes_z           fx          fy          fz
             1    0       0.000000      0.000000      0.000000     0.000000    0.000000    0.000000
 Energy
        -13.659555229680
 PlusStress:  xx          yy          zz          yz          xz          xy
        -0.64782    -0.64795    -0.64795    -0.00000     0.00000     0.00000
 Feature   EFS_by	Qe
 Feature   mindist	5.762032
END_CFG

BEGIN_CFG
 Size
    1
 Supercell
         1.407458      1.407473      1.407453
        -1.407453      1.407463      1.407453
        -1.407453     -1.407463      1.407458
 AtomData:  id type       cartes_x      cartes_y      cartes_z           fx          fy          fz
             1    0       0.000000      0.000000      0.000000     0.000000    0.000000    0.000000
 Energy
        -10.404324331709
 PlusStress:  xx          yy          zz          yz          xz          xy
        -0.34722    -0.34715    -0.34708     0.00005     0.00006     0.00001
 Feature   EFS_by	Qe
 Feature   mindist	2.437786
END_CFG

BEGIN_CFG
 Size
    1
 Supercell
         3.582613      3.582662      3.582607
        -3.582607      3.582631      3.582607
        -3.582600     -3.582638      3.582613
 AtomData:  id type       cartes_x      cartes_y      cartes_z           fx          fy          fz
             1    0       0.000000      0.000000      0.000000     0.000000    0.000000    0.000000
 Energy
        -13.511714544897
 PlusStress:  xx          yy          zz          yz          xz          xy
        -0.67012    -0.67012    -0.67012    -0.00000    -0.00000    -0.00000
 Feature   EFS_by	Qe
 Feature   mindist	6.205267
END_CFG

BEGIN_CFG
 Size
    1
 Supercell
         1.663356      1.663379      1.663353
        -1.663353      1.663362      1.663356
        -1.663353     -1.663368      1.663356
 AtomData:  id type       cartes_x      cartes_y      cartes_z           fx          fy          fz
             1    0       0.000000      0.000000      0.000000     0.000000    0.000000    0.000000
 Energy
        -11.266705264625
 PlusStress:  xx          yy          zz          yz          xz          xy
         4.20341     4.20324     4.20324    -0.00015     0.00020     0.00002
 Feature   EFS_by	Qe
 Feature   mindist	2.881012
END_CFG

BEGIN_CFG
 Size
    1
 Supercell
        -1.023603     -1.023619     -1.023603
         1.023603     -1.023608     -1.023603
         1.023597      1.023608     -1.023603
 AtomData:  id type       cartes_x      cartes_y      cartes_z           fx          fy          fz
             1    0       0.000000      0.000000      0.000000     0.000000    0.000000    0.000000
 Energy
        -10.619045705290
 PlusStress:  xx          yy          zz          yz          xz          xy
         2.19310     2.18909     2.19311    -0.00061    -0.00030    -0.00032
 Feature   EFS_by	Qe
 Feature   mindist	1.772932
END_CFG

BEGIN_CFG
 Size
    1
 Supercell
         1.791309      1.791327      1.791302
        -1.791302      1.791312      1.791309
        -1.791302     -1.791318      1.791309
 AtomData:  id type       cartes_x      cartes_y      cartes_z           fx          fy          fz
             1    0       0.000000      0.000000      0.000000     0.000000    0.000000    0.000000
 Energy
        -12.207241788082
 PlusStress:  xx          yy          zz          yz          xz          xy
         4.02749     4.02745     4.02752     0.00032    -0.00011    -0.00006
 Feature   EFS_by	Qe
 Feature   mindist	3.102630
END_CFG

BEGIN_CFG
 Size
    1
 Supercell
         3.710562      3.710613      3.710555
        -3.710562      3.710581      3.710562
        -3.710549     -3.710588      3.710568
 AtomData:  id type       cartes_x      cartes_y      cartes_z           fx          fy          fz
             1    0       0.000000      0.000000      0.000000     0.000000    0.000000    0.000000
 Energy
        -13.441446854881
 PlusStress:  xx          yy          zz          yz          xz          xy
        -0.66195    -0.66214    -0.66214     0.00000     0.00000    -0.00000
 Feature   EFS_by	Qe
 Feature   mindist	6.426885
END_CFG

BEGIN_CFG
 Size
    1
 Supercell
        -1.151554     -1.151570     -1.151554
         1.151554     -1.151558     -1.151554
         1.151548      1.151564     -1.151554
 AtomData:  id type       cartes_x      cartes_y      cartes_z           fx          fy          fz
             1    0       0.000000      0.000000      0.000000     0.000000    0.000000    0.000000
 Energy
        -10.431819940660
 PlusStress:  xx          yy          zz          yz          xz          xy
        -1.15872    -1.15986    -1.15871    -0.00026    -0.00023    -0.00019
 Feature   EFS_by	Qe
 Feature   mindist	1.994552
END_CFG

BEGIN_CFG
 Size
    1
 Supercell
         1.919256      1.919283      1.919253
        -1.919256      1.919266      1.919256
        -1.919253     -1.919273      1.919256
 AtomData:  id type       cartes_x      cartes_y      cartes_z           fx          fy          fz
             1    0       0.000000      0.000000      0.000000     0.000000    0.000000    0.000000
 Energy
        -12.948264837379
 PlusStress:  xx          yy          zz          yz          xz          xy
         3.04742     3.04784     3.04791     0.00018    -0.00005    -0.00003
 Feature   EFS_by	Qe
 Feature   mindist	3.324250
END_CFG

BEGIN_CFG
 Size
    1
 Supercell
         2.047206      2.047234      2.047202
        -2.047206      2.047216      2.047206
        -2.047202     -2.047224      2.047206
 AtomData:  id type       cartes_x      cartes_y      cartes_z           fx          fy          fz
             1    0       0.000000      0.000000      0.000000     0.000000    0.000000    0.000000
 Energy
        -13.435517085695
 PlusStress:  xx          yy          zz          yz          xz          xy
         2.01457     2.01445     2.01451    -0.00006     0.00006     0.00000
 Feature   EFS_by	Qe
 Feature   mindist	3.545864
END_CFG

BEGIN_CFG
 Size
    1
 Supercell
         2.175162      2.175189      2.175151
        -2.175155      2.175166      2.175155
        -2.175151     -2.175174      2.175162
 AtomData:  id type       cartes_x      cartes_y      cartes_z           fx          fy          fz
             1    0       0.000000      0.000000      0.000000     0.000000    0.000000    0.000000
 Energy
        -13.728197447553
 PlusStress:  xx          yy          zz          yz          xz          xy
         1.23976     1.24007     1.23992    -0.00000    -0.00004     0.00008
 Feature   EFS_by	Qe
 Feature   mindist	3.767485
END_CFG

BEGIN_CFG
 Size
    1
 Supercell
         2.303112      2.303140      2.303100
        -2.303108      2.303124      2.303108
        -2.303100     -2.303124      2.303112
 AtomData:  id type       cartes_x      cartes_y      cartes_z           fx          fy          fz
             1    0       0.000000      0.000000      0.000000     0.000000    0.000000    0.000000
 Energy
        -13.890919359068
 PlusStress:  xx          yy          zz          yz          xz          xy
         0.68484     0.68489     0.68484     0.00004    -0.00000    -0.00000
 Feature   EFS_by	Qe
 Feature   mindist	3.989104
END_CFG

BEGIN_CFG
 Size
    1
 Supercell
         2.431063      2.431093      2.431050
        -2.431055      2.431071      2.431055
        -2.431050     -2.431076      2.431063
 AtomData:  id type       cartes_x      cartes_y      cartes_z           fx          fy          fz
             1    0       0.000000      0.000000      0.000000     0.000000    0.000000    0.000000
 Energy
        -13.968141871182
 PlusStress:  xx          yy          zz          yz          xz          xy
         0.28621     0.28626     0.28626    -0.00000    -0.00005     0.00000
 Feature   EFS_by	Qe
 Feature   mindist	4.210720
END_CFG

