BEGIN_CFG
 Size
    1
 Supercell
         1.663356      1.663356      1.663356
        -1.663356      1.663356      1.663356
        -1.663356     -1.663356      1.663356
 AtomData:  id type       cartes_x      cartes_y      cartes_z           fx          fy          fz
             1    0       0.000000      0.000000      0.000000     0.000000    0.000000    0.000000
 Energy
        -11.266680094100
 PlusStress:  xx          yy          zz          yz          xz          xy
         4.20529     4.20529     4.20529     0.00000     0.00000     0.00000
 Feature   EFS_by	Qe
 Feature   ID	-1
 Feature   mindist	2.881018
END_CFG

BEGIN_CFG
 Size
    1
 Supercell
         3.070812      3.070812      3.070812
        -3.070812      3.070812      3.070812
        -3.070812     -3.070812      3.070812
 AtomData:  id type       cartes_x      cartes_y      cartes_z           fx          fy          fz
             1    0       0.000000      0.000000      0.000000     0.000000    0.000000    0.000000
 Energy
        -13.806676989600
 PlusStress:  xx          yy          zz          yz          xz          xy
        -0.56089    -0.56089    -0.56089    -0.00000    -0.00000    -0.00000
 Feature   EFS_by	Qe
 Feature   ID	-1
 Feature   mindist	5.318802
END_CFG

BEGIN_CFG
 Size
    1
 Supercell
         1.791307      1.791307      1.791307
        -1.791307      1.791307      1.791307
        -1.791307     -1.791307      1.791307
 AtomData:  id type       cartes_x      cartes_y      cartes_z           fx          fy          fz
             1    0       0.000000      0.000000      0.000000     0.000000    0.000000    0.000000
 Energy
        -12.207250903900
 PlusStress:  xx          yy          zz          yz          xz          xy
         4.02624     4.02624     4.02624     0.00000     0.00000     0.00000
 Feature   EFS_by	Qe
 Feature   ID	-1
 Feature   mindist	3.102635
END_CFG

BEGIN_CFG
 Size
    2
 Supercell
         1.791307      1.791307      1.791307
        -1.791307      1.791307      1.791307
        -1.791307     -1.791307      1.791307
 AtomData:  id type       cartes_x      cartes_y      cartes_z           fx          fy          fz
             1    0       0.000000      0.000000      0.000000     1.754744   -1.754744    0.193534
             2    0      -0.591132      0.591132      1.773395    -1.754744    1.754744   -0.193534
 Energy
        -24.304545494900
 PlusStress:  xx          yy          zz          yz          xz          xy
         0.03540     0.03540    -2.54388    -0.12909     0.12909     3.69420
 Feature   EFS_by	Qe
 Feature   ID	-1
 Feature   mindist	1.697399
END_CFG

BEGIN_CFG
 Size
    2
 Supercell
         5.066842      0.000000      0.000000
         0.000000      5.066842      0.000000
         0.000000      0.000000      5.066842
 AtomData:  id type       cartes_x      cartes_y      cartes_z           fx          fy          fz
             1    0       0.694680      0.229647      4.908284    -0.271017    0.073575    0.245617
             2    0       2.367603      2.832636      3.220842     0.271017   -0.073575   -0.245617
 Energy
        -27.539056186240
 PlusStress:  xx          yy          zz          yz          xz          xy
         0.24231     0.78628     0.30015    -0.01246    -0.51389     0.01850
 Feature   MV_grade	4.780105
END_CFG

BEGIN_CFG
 Size
    2
 Supercell
         1.919257      1.919257      1.919257
        -1.919257      1.919257      1.919257
        -1.919257     -1.919257      1.919257
 AtomData:  id type       cartes_x      cartes_y      cartes_z           fx          fy          fz
             1    0       0.000000      0.000000      0.000000     1.161931   -1.161931    0.106048
             2    0      -0.633355      0.633355      1.900066    -1.161931    1.161931   -0.106048
 Energy
        -24.338277953500
 PlusStress:  xx          yy          zz          yz          xz          xy
         1.96425     1.96425    -0.86253    -0.08869     0.08869     2.67181
 Feature   EFS_by	Qe
 Feature   ID	-1
 Feature   mindist	1.818641
END_CFG

BEGIN_CFG
 Size
    1
 Supercell
         2.379879      2.379879      2.379879
        -2.379879      2.379879      2.379879
        -2.379879     -2.379879      2.379879
 AtomData:  id type       cartes_x      cartes_y      cartes_z           fx          fy          fz
             1    0       0.000000      0.000000      0.000000     0.000000    0.000000    0.000000
 Energy
        -13.945377914100
 PlusStress:  xx          yy          zz          yz          xz          xy
         0.43019     0.43019     0.43019     0.00000     0.00000     0.00000
 Feature   EFS_by	Qe
 Feature   ID	-1
 Feature   mindist	4.122072
END_CFG

BEGIN_CFG
 Size
    2
 Supercell
         1.663356      1.663356      1.663356
        -1.663356      1.663356      1.663356
        -1.663356     -1.663356      1.663356
 AtomData:  id type       cartes_x      cartes_y      cartes_z           fx          fy          fz
             1    0       0.000000      0.000000      0.000000     1.963019   -1.963019    0.281067
             2    0      -0.548908      0.548908      1.646724    -1.963019    1.963019   -0.281067
 Energy
        -24.811829269000
 PlusStress:  xx          yy          zz          yz          xz          xy
        -3.14718    -3.14718    -5.74819    -0.23401     0.23401     4.81321
 Feature   EFS_by	Qe
 Feature   ID	-1
 Feature   mindist	1.576156
END_CFG

BEGIN_CFG
 Size
    1
 Supercell
         2.047208      2.047208      2.047208
        -2.047208      2.047208      2.047208
        -2.047208     -2.047208      2.047208
 AtomData:  id type       cartes_x      cartes_y      cartes_z           fx          fy          fz
             1    0       0.000000      0.000000      0.000000     0.000000    0.000000    0.000000
 Energy
        -13.435513004000
 PlusStress:  xx          yy          zz          yz          xz          xy
         2.01488     2.01488     2.01488     0.00000     0.00000     0.00000
 Feature   EFS_by	Qe
 Feature   ID	-1
 Feature   mindist	3.545868
END_CFG

BEGIN_CFG
 Size
    1
 Supercell
         2.226339      2.226339      2.226339
        -2.226339      2.226339      2.226339
        -2.226339     -2.226339      2.226339
 AtomData:  id type       cartes_x      cartes_y      cartes_z           fx          fy          fz
             1    0       0.000000      0.000000      0.000000     0.000000    0.000000    0.000000
 Energy
        -13.805967180600
 PlusStress:  xx          yy          zz          yz          xz          xy
         0.99491     0.99491     0.99491    -0.00000     0.00000    -0.00000
 Feature   EFS_by	Qe
 Feature   ID	-1
 Feature   mindist	3.856132
END_CFG

BEGIN_CFG
 Size
    2
 Supercell
         2.175158      2.175158      2.175158
        -2.175158      2.175158      2.175158
        -2.175158     -2.175158      2.175158
 AtomData:  id type       cartes_x      cartes_y      cartes_z           fx          fy          fz
             1    0       0.000000      0.000000      0.000000     0.410212   -0.410212    0.034150
             2    0      -0.717803      0.717803      2.153408    -0.410212    0.410212   -0.034150
 Energy
        -25.091386667800
 PlusStress:  xx          yy          zz          yz          xz          xy
         3.32366     3.32366     1.43101    -0.04675     0.04675     1.10687
 Feature   EFS_by	Qe
 Feature   ID	-1
 Feature   mindist	2.061127
END_CFG

BEGIN_CFG
 Size
    2
 Supercell
         2.584600      2.584600      2.584600
        -2.584600      2.584600      2.584600
        -2.584600     -2.584600      2.584600
 AtomData:  id type       cartes_x      cartes_y      cartes_z           fx          fy          fz
             1    0       0.000000      0.000000      0.000000    -0.021581    0.021581   -0.006853
             2    0      -0.852918      0.852918      2.558755     0.021581   -0.021581    0.006853
 Energy
        -26.361601786300
 PlusStress:  xx          yy          zz          yz          xz          xy
         1.60180     1.60180     2.62137     0.01959    -0.01959    -0.64837
 Feature   EFS_by	Qe
 Feature   ID	-1
 Feature   mindist	2.449104
END_CFG

BEGIN_CFG
 Size
    2
 Supercell
         2.379879      2.379879      2.379879
        -2.379879      2.379879      2.379879
        -2.379879     -2.379879      2.379879
 AtomData:  id type       cartes_x      cartes_y      cartes_z           fx          fy          fz
             1    0       0.000000      0.000000      0.000000     0.170984   -0.170984    0.008210
             2    0      -0.785361      0.785361      2.356082    -0.170984    0.170984   -0.008210
 Energy
        -25.806188961600
 PlusStress:  xx          yy          zz          yz          xz          xy
         2.55838     2.55838     2.42858    -0.01337     0.01337     0.17084
 Feature   EFS_by	Qe
 Feature   ID	-1
 Feature   mindist	2.255115
END_CFG

BEGIN_CFG
 Size
    2
 Supercell
         3.070812      3.070812      3.070812
        -3.070812      3.070812      3.070812
        -3.070812     -3.070812      3.070812
 AtomData:  id type       cartes_x      cartes_y      cartes_z           fx          fy          fz
             1    0       0.000000      0.000000      0.000000    -0.280082    0.280082   -0.024133
             2    0      -1.013368      1.013368      3.040105     0.280082   -0.280082    0.024133
 Energy
        -27.057303591900
 PlusStress:  xx          yy          zz          yz          xz          xy
         0.38637     0.38637     1.63800     0.05902    -0.05902    -1.49826
 Feature   EFS_by	Qe
 Feature   ID	-1
 Feature   mindist	2.909826
END_CFG

BEGIN_CFG
 Size
    1
 Supercell
         1.919257      1.919257      1.919257
        -1.919257      1.919257      1.919257
        -1.919257     -1.919257      1.919257
 AtomData:  id type       cartes_x      cartes_y      cartes_z           fx          fy          fz
             1    0       0.000000      0.000000      0.000000     0.000000    0.000000    0.000000
 Energy
        -12.948256537900
 PlusStress:  xx          yy          zz          yz          xz          xy
         3.04767     3.04767     3.04767     0.00000     0.00000     0.00000
 Feature   EFS_by	Qe
 Feature   ID	-1
 Feature   mindist	3.324251
END_CFG

BEGIN_CFG
 Size
    2
 Supercell
         2.047208      2.047208      2.047208
        -2.047208      2.047208      2.047208
        -2.047208     -2.047208      2.047208
 AtomData:  id type       cartes_x      cartes_y      cartes_z           fx          fy          fz
             1    0       0.000000      0.000000      0.000000     0.672670   -0.672670    0.066606
             2    0      -0.675579      0.675579      2.026737    -0.672670    0.672670   -0.066606
 Energy
        -24.646591664800
 PlusStress:  xx          yy          zz          yz          xz          xy
         3.06083     3.06083     0.35557    -0.06652     0.06652     1.82140
 Feature   EFS_by	Qe
 Feature   ID	-1
 Feature   mindist	1.939884
END_CFG

BEGIN_CFG
 Size
    1
 Supercell
         2.738140      2.738140      2.738140
        -2.738140      2.738140      2.738140
        -2.738140     -2.738140      2.738140
 AtomData:  id type       cartes_x      cartes_y      cartes_z           fx          fy          fz
             1    0       0.000000      0.000000      0.000000     0.000000    0.000000    0.000000
 Energy
        -13.958078420300
 PlusStress:  xx          yy          zz          yz          xz          xy
        -0.28236    -0.28236    -0.28236     0.00000    -0.00000     0.00000
 Feature   EFS_by	Qe
 Feature   ID	-1
 Feature   mindist	4.742598
END_CFG

BEGIN_CFG
 Size
    2
 Supercell
         2.482239      2.482239      2.482239
        -2.482239      2.482239      2.482239
        -2.482239     -2.482239      2.482239
 AtomData:  id type       cartes_x      cartes_y      cartes_z           fx          fy          fz
             1    0       0.000000      0.000000      0.000000     0.067745   -0.067745    0.000028
             2    0      -0.819139      0.819139      2.457418    -0.067745    0.067745   -0.000028
 Energy
        -26.107775746200
 PlusStress:  xx          yy          zz          yz          xz          xy
         2.06646     2.06646     2.59996     0.00376    -0.00376    -0.25816
 Feature   EFS_by	Qe
 Feature   ID	-1
 Feature   mindist	2.352110
END_CFG

BEGIN_CFG
 Size
    2
 Supercell
         4.964481      0.000000      0.000000
         0.000000      4.964481      0.000000
         0.000000      0.000000      4.964481
 AtomData:  id type       cartes_x      cartes_y      cartes_z           fx          fy          fz
             1    0       0.236114      0.774314      0.195084    -0.011400   -0.524243   -0.067061
             2    0       2.826170      2.287970      2.867199     0.011400    0.524243    0.067061
 Energy
        -27.490228467404
 PlusStress:  xx          yy          zz          yz          xz          xy
        -0.11269    -1.20787    -0.09254    -0.39567     0.12156    -0.13923
 Feature   MV_grade	2.121241
END_CFG

BEGIN_CFG
 Size
    2
 Supercell
         4.862121      0.000000      0.000000
         0.000000      4.862121      0.000000
         0.000000      0.000000      4.862121
 AtomData:  id type       cartes_x      cartes_y      cartes_z
             1    0       0.000000      0.000000      0.000000
             2    0       3.062284      3.062284      3.062284
 Feature   MV_grade	13.484561
END_CFG

BEGIN_CFG
 Size
    1
 Supercell
         2.482239      2.482239      2.482239
        -2.482239      2.482239      2.482239
        -2.482239     -2.482239      2.482239
 AtomData:  id type       cartes_x      cartes_y      cartes_z           fx          fy          fz
             1    0       0.000000      0.000000      0.000000     0.000000    0.000000    0.000000
 Energy
        -13.981971650000
 PlusStress:  xx          yy          zz          yz          xz          xy
         0.15952     0.15952     0.15952     0.00000     0.00000    -0.00000
 Feature   EFS_by	Qe
 Feature   ID	-1
 Feature   mindist	4.299365
END_CFG

BEGIN_CFG
 Size
    2
 Supercell
         2.789321      2.789321      2.789321
        -2.789321      2.789321      2.789321
        -2.789321     -2.789321      2.789321
 AtomData:  id type       cartes_x      cartes_y      cartes_z           fx          fy          fz
             1    0       0.000000      0.000000      0.000000    -0.163612    0.163612   -0.017823
             2    0      -0.920476      0.920476      2.761429     0.163612   -0.163612    0.017823
 Energy
        -26.742370302700
 PlusStress:  xx          yy          zz          yz          xz          xy
         0.92280     0.92280     2.34708     0.04431    -0.04431    -1.20893
 Feature   EFS_by	Qe
 Feature   ID	-1
 Feature   mindist	2.643092
END_CFG

