BEGIN_CFG
 Size
    2
 Supercell
         1.791307      1.791307      1.791307
        -1.791307      1.791307      1.791307
        -1.791307     -1.791307      1.791307
 AtomData:  id type       cartes_x      cartes_y      cartes_z           fx          fy          fz
             1    0       0.000000      0.000000      0.000000     1.754744   -1.754744    0.193534
             2    0      -0.591132      0.591132      1.773395    -1.754744    1.754744   -0.193534
 Energy
        -24.304545494900
 PlusStress:  xx          yy          zz          yz          xz          xy
         0.03540     0.03540    -2.54388    -0.12909     0.12909     3.69420
 Feature   EFS_by	Qe
 Feature   ID	-1
 Feature   mindist	1.697399
END_CFG

BEGIN_CFG
 Size
    2
 Supercell
         4.862121      0.000000      0.000000
         0.000000      4.862121      0.000000
         0.000000      0.000000      4.862121
 AtomData:  id type       cartes_x      cartes_y      cartes_z           fx          fy          fz
             1    0       4.485995      4.480505      4.484780    -8.167609   -8.087642   -8.149926
             2    0       3.438410      3.443900      3.439625     8.167609    8.087642    8.149926
 Energy
        -31.902581537122
 PlusStress:  xx          yy          zz          yz          xz          xy
       -24.91835   -24.59848   -24.86129    -6.37515    -6.43177    -6.38838
 Feature   MV_grade	14.466826
END_CFG

BEGIN_CFG
 Size
    1
 Supercell
         1.663356      1.663356      1.663356
        -1.663356      1.663356      1.663356
        -1.663356     -1.663356      1.663356
 AtomData:  id type       cartes_x      cartes_y      cartes_z           fx          fy          fz
             1    0       0.000000      0.000000      0.000000     0.000000    0.000000    0.000000
 Energy
        -11.266680094100
 PlusStress:  xx          yy          zz          yz          xz          xy
         4.20529     4.20529     4.20529     0.00000     0.00000     0.00000
 Feature   EFS_by	Qe
 Feature   ID	-1
 Feature   mindist	2.881018
END_CFG

BEGIN_CFG
 Size
    2
 Supercell
         4.862121      0.000000      0.000000
         0.000000      4.862121      0.000000
         0.000000      0.000000      4.862121
 AtomData:  id type       cartes_x      cartes_y      cartes_z           fx          fy          fz
             1    0       4.420932      4.416835      4.417591     4.109550    3.966971    4.028836
             2    0       3.503473      3.507570      3.506814    -4.109550   -3.966971   -4.028836
 Energy
        -33.239819777701
 PlusStress:  xx          yy          zz          yz          xz          xy
        -9.31705    -9.13503    -9.21807     5.18357     5.33751     5.27021
 Feature   MV_grade	14.482360
END_CFG

BEGIN_CFG
 Size
    1
 Supercell
         1.919257      1.919257      1.919257
        -1.919257      1.919257      1.919257
        -1.919257     -1.919257      1.919257
 AtomData:  id type       cartes_x      cartes_y      cartes_z           fx          fy          fz
             1    0       0.000000      0.000000      0.000000     0.000000    0.000000    0.000000
 Energy
        -12.948256537900
 PlusStress:  xx          yy          zz          yz          xz          xy
         3.04767     3.04767     3.04767     0.00000     0.00000     0.00000
 Feature   EFS_by	Qe
 Feature   ID	-1
 Feature   mindist	3.324251
END_CFG

BEGIN_CFG
 Size
    2
 Supercell
         1.663356      1.663356      1.663356
        -1.663356      1.663356      1.663356
        -1.663356     -1.663356      1.663356
 AtomData:  id type       cartes_x      cartes_y      cartes_z           fx          fy          fz
             1    0       0.000000      0.000000      0.000000     1.963019   -1.963019    0.281067
             2    0      -0.548908      0.548908      1.646724    -1.963019    1.963019   -0.281067
 Energy
        -24.811829269000
 PlusStress:  xx          yy          zz          yz          xz          xy
        -3.14718    -3.14718    -5.74819    -0.23401     0.23401     4.81321
 Feature   EFS_by	Qe
 Feature   ID	-1
 Feature   mindist	1.576156
END_CFG

BEGIN_CFG
 Size
    2
 Supercell
         2.047208      2.047208      2.047208
        -2.047208      2.047208      2.047208
        -2.047208     -2.047208      2.047208
 AtomData:  id type       cartes_x      cartes_y      cartes_z           fx          fy          fz
             1    0       0.000000      0.000000      0.000000     0.672670   -0.672670    0.066606
             2    0      -0.675579      0.675579      2.026737    -0.672670    0.672670   -0.066606
 Energy
        -24.646591664800
 PlusStress:  xx          yy          zz          yz          xz          xy
         3.06083     3.06083     0.35557    -0.06652     0.06652     1.82140
 Feature   EFS_by	Qe
 Feature   ID	-1
 Feature   mindist	1.939884
END_CFG

BEGIN_CFG
 Size
    2
 Supercell
         4.862121      0.000000      0.000000
         0.000000      4.862121      0.000000
         0.000000      0.000000      4.862121
 AtomData:  id type       cartes_x      cartes_y      cartes_z           fx          fy          fz
             1    0      21.811450     21.784757     21.805543     9.471404    7.309604    8.994844
             2    0      16.717965     16.744658     16.723873    -9.471404   -7.309604   -8.994844
 Energy
        -43.783228550600
 PlusStress:  xx          yy          zz          yz          xz          xy
         2.01803     1.13080     1.80169     1.60550     2.08230     1.69098
 Feature   EFS_by	Qe
 Feature   ID	-1
 Feature   mindist	0.365250
END_CFG

BEGIN_CFG
 Size
    2
 Supercell
         4.862121      0.000000      0.000000
         0.000000      4.862121      0.000000
         0.000000      0.000000      4.862121
 AtomData:  id type       cartes_x      cartes_y      cartes_z           fx          fy          fz
             1    0      21.953400     21.903996     21.942625   -18.462752  -14.918542  -17.687637
             2    0      16.576016     16.625415     16.586785    18.462752   14.918542   17.687637
 Energy
        -27.389123859000
 PlusStress:  xx          yy          zz          yz          xz          xy
       -10.55292    -7.34489    -9.79286    -7.40895    -9.16430    -7.73220
 Feature   EFS_by	Qe
 Feature   ID	-1
 Feature   mindist	0.826253
END_CFG

BEGIN_CFG
 Size
    2
 Supercell
         2.533420      2.533420      2.533420
        -2.533420      2.533420      2.533420
        -2.533420     -2.533420      2.533420
 AtomData:  id type       cartes_x      cartes_y      cartes_z           fx          fy          fz
             1    0       0.000000      0.000000      0.000000     0.021379   -0.021379   -0.003442
             2    0      -0.836029      0.836029      2.508087    -0.021379    0.021379    0.003442
 Energy
        -26.240568398400
 PlusStress:  xx          yy          zz          yz          xz          xy
         1.82513     1.82513     2.62648     0.01188    -0.01188    -0.46167
 Feature   EFS_by	Qe
 Feature   ID	-1
 Feature   mindist	2.400607
END_CFG

BEGIN_CFG
 Size
    1
 Supercell
         2.175158      2.175158      2.175158
        -2.175158      2.175158      2.175158
        -2.175158     -2.175158      2.175158
 AtomData:  id type       cartes_x      cartes_y      cartes_z           fx          fy          fz
             1    0       0.000000      0.000000      0.000000     0.000000    0.000000    0.000000
 Energy
        -13.728188467800
 PlusStress:  xx          yy          zz          yz          xz          xy
         1.24036     1.24036     1.24036     0.00000     0.00000    -0.00000
 Feature   EFS_by	Qe
 Feature   ID	-1
 Feature   mindist	3.767485
END_CFG

BEGIN_CFG
 Size
    1
 Supercell
         2.482239      2.482239      2.482239
        -2.482239      2.482239      2.482239
        -2.482239     -2.482239      2.482239
 AtomData:  id type       cartes_x      cartes_y      cartes_z           fx          fy          fz
             1    0       0.000000      0.000000      0.000000     0.000000    0.000000    0.000000
 Energy
        -13.981971650000
 PlusStress:  xx          yy          zz          yz          xz          xy
         0.15952     0.15952     0.15952     0.00000     0.00000    -0.00000
 Feature   EFS_by	Qe
 Feature   ID	-1
 Feature   mindist	4.299365
END_CFG

BEGIN_CFG
 Size
    2
 Supercell
         1.919257      1.919257      1.919257
        -1.919257      1.919257      1.919257
        -1.919257     -1.919257      1.919257
 AtomData:  id type       cartes_x      cartes_y      cartes_z           fx          fy          fz
             1    0       0.000000      0.000000      0.000000     1.161931   -1.161931    0.106048
             2    0      -0.633355      0.633355      1.900066    -1.161931    1.161931   -0.106048
 Energy
        -24.338277953500
 PlusStress:  xx          yy          zz          yz          xz          xy
         1.96425     1.96425    -0.86253    -0.08869     0.08869     2.67181
 Feature   EFS_by	Qe
 Feature   ID	-1
 Feature   mindist	1.818641
END_CFG

BEGIN_CFG
 Size
    2
 Supercell
         4.862121      0.000000      0.000000
         0.000000      4.862121      0.000000
         0.000000      0.000000      4.862121
 AtomData:  id type       cartes_x      cartes_y      cartes_z           fx          fy          fz
             1    0      21.634143     21.588060     21.614967   -33.418280  -58.323855  -43.794790
             2    0      16.895272     16.941351     16.914448    33.418280   58.323855   43.794790
 Energy
        -40.710952318100
 PlusStress:  xx          yy          zz          yz          xz          xy
         3.97179    12.41318     6.92634     9.43130     5.40189     7.19577
 Feature   EFS_by	Qe
 Feature   ID	-1
 Feature   mindist	0.296155
END_CFG

BEGIN_CFG
 Size
    2
 Supercell
         4.862121      0.000000      0.000000
         0.000000      4.862121      0.000000
         0.000000      0.000000      4.862121
 AtomData:  id type       cartes_x      cartes_y      cartes_z           fx          fy          fz
             1    0      21.495106     21.475186     21.478862    23.500277   25.840638   25.408633
             2    0      17.034309     17.054230     17.050554   -23.500277  -25.840638  -25.408633
 Energy
        -30.392077044700
 PlusStress:  xx          yy          zz          yz          xz          xy
        -9.93819   -11.89311   -11.51835   -11.22391   -10.20920   -10.38249
 Feature   EFS_by	Qe
 Feature   ID	-1
 Feature   mindist	0.737483
END_CFG

BEGIN_CFG
 Size
    2
 Supercell
         4.862121      0.000000      0.000000
         0.000000      4.862121      0.000000
         0.000000      0.000000      4.862121
 AtomData:  id type       cartes_x      cartes_y      cartes_z           fx          fy          fz
             1    0      21.777343     21.747718     21.771814   108.364761   69.048482  101.030561
             2    0      16.752068     16.781698     16.757601  -108.364761  -69.048482 -101.030561
 Energy
        -34.792668514400
 PlusStress:  xx          yy          zz          yz          xz          xy
        17.53467     7.03419    15.22072    10.50047    16.48206    11.26317
 Feature   EFS_by	Qe
 Feature   ID	-1
 Feature   mindist	0.246061
END_CFG

BEGIN_CFG
 Size
    2
 Supercell
         4.862121      0.000000      0.000000
         0.000000      4.862121      0.000000
         0.000000      0.000000      4.862121
 AtomData:  id type       cartes_x      cartes_y      cartes_z           fx          fy          fz
             1    0       4.621993      4.607133      4.618650    -1.218363   -1.056993   -1.176223
             2    0       3.302412      3.317272      3.305754     1.218363    1.056993    1.176223
 Energy
        -28.684949604285
 PlusStress:  xx          yy          zz          yz          xz          xy
       -10.61089   -10.83129   -10.67252     0.10856    -0.07079     0.06178
 Feature   MV_grade	2.277896
END_CFG

BEGIN_CFG
 Size
    1
 Supercell
         2.328699      2.328699      2.328699
        -2.328699      2.328699      2.328699
        -2.328699     -2.328699      2.328699
 AtomData:  id type       cartes_x      cartes_y      cartes_z           fx          fy          fz
             1    0       0.000000      0.000000      0.000000     0.000000    0.000000    0.000000
 Energy
        -13.912092402500
 PlusStress:  xx          yy          zz          yz          xz          xy
         0.59443     0.59443     0.59443     0.00000     0.00000    -0.00000
 Feature   EFS_by	Qe
 Feature   ID	-1
 Feature   mindist	4.033425
END_CFG

BEGIN_CFG
 Size
    2
 Supercell
         5.169202      0.000000      0.000000
         0.000000      5.169202      0.000000
         0.000000      0.000000      5.169202
 AtomData:  id type       cartes_x      cartes_y      cartes_z           fx          fy          fz
             1    0       0.472741      4.968953      4.619415    -0.339261    0.395469    0.281745
             2    0       2.589543      3.262533      3.612071     0.339261   -0.395469   -0.281745
 Energy
        -27.244390736804
 PlusStress:  xx          yy          zz          yz          xz          xy
         1.23695     0.74382     0.11915     0.46305    -0.42263     0.09430
 Feature   MV_grade	2.144473
END_CFG

BEGIN_CFG
 Size
    1
 Supercell
         1.791307      1.791307      1.791307
        -1.791307      1.791307      1.791307
        -1.791307     -1.791307      1.791307
 AtomData:  id type       cartes_x      cartes_y      cartes_z           fx          fy          fz
             1    0       0.000000      0.000000      0.000000     0.000000    0.000000    0.000000
 Energy
        -12.207250903900
 PlusStress:  xx          yy          zz          yz          xz          xy
         4.02624     4.02624     4.02624     0.00000     0.00000     0.00000
 Feature   EFS_by	Qe
 Feature   ID	-1
 Feature   mindist	3.102635
END_CFG

BEGIN_CFG
 Size
    2
 Supercell
         2.379879      2.379879      2.379879
        -2.379879      2.379879      2.379879
        -2.379879     -2.379879      2.379879
 AtomData:  id type       cartes_x      cartes_y      cartes_z           fx          fy          fz
             1    0       0.000000      0.000000      0.000000     0.170984   -0.170984    0.008210
             2    0      -0.785361      0.785361      2.356082    -0.170984    0.170984   -0.008210
 Energy
        -25.806188961600
 PlusStress:  xx          yy          zz          yz          xz          xy
         2.55838     2.55838     2.42858    -0.01337     0.01337     0.17084
 Feature   EFS_by	Qe
 Feature   ID	-1
 Feature   mindist	2.255115
END_CFG

BEGIN_CFG
 Size
    2
 Supercell
         5.169202      0.000000      0.000000
         0.000000      5.169202      0.000000
         0.000000      0.000000      5.169202
 AtomData:  id type       cartes_x      cartes_y      cartes_z           fx          fy          fz
             1    0       4.665244      0.942446      1.407454    -2.043050    1.229654    0.751797
             2    0       3.566242      2.119838      1.654830     2.043050   -1.229654   -0.751797
 Energy
        -33.308068795173
 PlusStress:  xx          yy          zz          yz          xz          xy
        -6.19840    -9.13851    -0.20618    -0.33724     0.56032     0.01310
 Feature   MV_grade	10.228695
END_CFG

BEGIN_CFG
 Size
    1
 Supercell
         2.686960      2.686960      2.686960
        -2.686960      2.686960      2.686960
        -2.686960     -2.686960      2.686960
 AtomData:  id type       cartes_x      cartes_y      cartes_z           fx          fy          fz
             1    0       0.000000      0.000000      0.000000     0.000000    0.000000    0.000000
 Energy
        -13.972215007500
 PlusStress:  xx          yy          zz          yz          xz          xy
        -0.21445    -0.21445    -0.21445    -0.00000    -0.00000     0.00000
 Feature   EFS_by	Qe
 Feature   ID	-1
 Feature   mindist	4.653952
END_CFG

