BEGIN_CFG
 Size
    2
 Supercell
         2.277519      2.277519      2.277519
        -2.277519      2.277519      2.277519
        -2.277519     -2.277519      2.277519
 AtomData:  id type       cartes_x      cartes_y      cartes_z           fx          fy          fz
             1    0       0.000000      0.000000      0.000000     0.284320   -0.284320    0.018316
             2    0      -0.751582      0.751582      2.254745    -0.284320    0.284320   -0.018316
 Energy
        -25.462743854300
 PlusStress:  xx          yy          zz          yz          xz          xy
         2.98817     2.98817     2.05261    -0.03107     0.03107     0.60569
 Feature   EFS_by	Qe
 Feature   mindist	2.158121
END_CFG

BEGIN_CFG
 Size
    1
 Supercell
         2.559009      5.118025      5.118025
        -2.559009      2.559024      2.559009
        -2.559001     -2.559024      2.559009
 AtomData:  id type       cartes_x      cartes_y      cartes_z           fx          fy          fz
             1    0       0.000000      0.000000      0.000000     0.000000    0.000000    0.000000
 Energy
        -13.813414937000
 PlusStress:  xx          yy          zz          yz          xz          xy
        -0.28175    -0.23310    -0.24603    -0.00000    -0.26024    -0.00000
 Feature   EFS_by	Qe
 Feature   mindist	4.432337
END_CFG

BEGIN_CFG
 Size
    1
 Supercell
         2.559011      4.734173      4.734173
        -2.559004      2.559025      2.559011
        -2.559004     -2.559025      2.559011
 AtomData:  id type       cartes_x      cartes_y      cartes_z           fx          fy          fz
             1    0       0.000000      0.000000      0.000000     0.000000    0.000000    0.000000
 Energy
        -13.839861411000
 PlusStress:  xx          yy          zz          yz          xz          xy
        -0.30705    -0.23987    -0.24364    -0.01210    -0.26188    -0.00377
 Feature   EFS_by	Qe
 Feature   mindist	4.432341
END_CFG

BEGIN_CFG
 Size
    2
 Supercell
         1.663356      1.663356      1.663356
        -1.663356      1.663356      1.663356
        -1.663356     -1.663356      1.663356
 AtomData:  id type       cartes_x      cartes_y      cartes_z           fx          fy          fz
             1    0       0.000000      0.000000      0.000000     1.963019   -1.963019    0.281067
             2    0      -0.548908      0.548908      1.646724    -1.963019    1.963019   -0.281067
 Energy
        -24.811829269000
 PlusStress:  xx          yy          zz          yz          xz          xy
        -3.14718    -3.14718    -5.74819    -0.23401     0.23401     4.81321
 Feature   EFS_by	Qe
 Feature   mindist	1.576156
END_CFG

BEGIN_CFG
 Size
    1
 Supercell
         2.559013      4.350318      4.350318
        -2.559007      2.559020      2.559007
        -2.559000     -2.559027      2.559013
 AtomData:  id type       cartes_x      cartes_y      cartes_z           fx          fy          fz
             1    0       0.000000      0.000000      0.000000     0.000000    0.000000    0.000000
 Energy
        -13.868528061900
 PlusStress:  xx          yy          zz          yz          xz          xy
        -0.31864    -0.24178    -0.23322    -0.03440    -0.25291    -0.00839
 Feature   EFS_by	Qe
 Feature   mindist	4.432337
END_CFG

BEGIN_CFG
 Size
    1
 Supercell
         2.226339      2.226339      2.226339
        -2.226339      2.226339      2.226339
        -2.226339     -2.226339      2.226339
 AtomData:  id type       cartes_x      cartes_y      cartes_z           fx          fy          fz
             1    0       0.000000      0.000000      0.000000     0.000000    0.000000    0.000000
 Energy
        -13.805967180600
 PlusStress:  xx          yy          zz          yz          xz          xy
         0.99491     0.99491     0.99491    -0.00000     0.00000    -0.00000
 Feature   EFS_by	Qe
 Feature   mindist	3.856132
END_CFG

BEGIN_CFG
 Size
    1
 Supercell
         2.686960      2.686960      2.686960
        -2.686960      2.686960      2.686960
        -2.686960     -2.686960      2.686960
 AtomData:  id type       cartes_x      cartes_y      cartes_z           fx          fy          fz
             1    0       0.000000      0.000000      0.000000     0.000000    0.000000    0.000000
 Energy
        -13.972215007500
 PlusStress:  xx          yy          zz          yz          xz          xy
        -0.21445    -0.21445    -0.21445    -0.00000    -0.00000     0.00000
 Feature   EFS_by	Qe
 Feature   mindist	4.653952
END_CFG

BEGIN_CFG
 Size
    1
 Supercell
         2.559012      6.653428      6.653428
        -2.559002      2.559021      2.559012
        -2.559002     -2.559031      2.559012
 AtomData:  id type       cartes_x      cartes_y      cartes_z           fx          fy          fz
             1    0       0.000000      0.000000      0.000000     0.000000    0.000000    0.000000
 Energy
        -13.736351883600
 PlusStress:  xx          yy          zz          yz          xz          xy
        -0.13393    -0.25712    -0.13837    -0.00277    -0.15521    -0.00565
 Feature   EFS_by	Qe
 Feature   mindist	4.432338
END_CFG

BEGIN_CFG
 Size
    2
 Supercell
         1.919257      1.919257      1.919257
        -1.919257      1.919257      1.919257
        -1.919257     -1.919257      1.919257
 AtomData:  id type       cartes_x      cartes_y      cartes_z           fx          fy          fz
             1    0       0.000000      0.000000      0.000000     1.161931   -1.161931    0.106048
             2    0      -0.633355      0.633355      1.900066    -1.161931    1.161931   -0.106048
 Energy
        -24.338277953500
 PlusStress:  xx          yy          zz          yz          xz          xy
         1.96425     1.96425    -0.86253    -0.08869     0.08869     2.67181
 Feature   EFS_by	Qe
 Feature   mindist	1.818641
END_CFG

BEGIN_CFG
 Size
    1
 Supercell
         2.738140      2.738140      2.738140
        -2.738140      2.738140      2.738140
        -2.738140     -2.738140      2.738140
 AtomData:  id type       cartes_x      cartes_y      cartes_z           fx          fy          fz
             1    0       0.000000      0.000000      0.000000     0.000000    0.000000    0.000000
 Energy
        -13.958078420300
 PlusStress:  xx          yy          zz          yz          xz          xy
        -0.28236    -0.28236    -0.28236     0.00000    -0.00000     0.00000
 Feature   EFS_by	Qe
 Feature   mindist	4.742598
END_CFG

BEGIN_CFG
 Size
    1
 Supercell
         3.070812      3.070812      3.070812
        -3.070812      3.070812      3.070812
        -3.070812     -3.070812      3.070812
 AtomData:  id type       cartes_x      cartes_y      cartes_z           fx          fy          fz
             1    0       0.000000      0.000000      0.000000     0.000000    0.000000    0.000000
 Energy
        -13.806676989600
 PlusStress:  xx          yy          zz          yz          xz          xy
        -0.56089    -0.56089    -0.56089    -0.00000    -0.00000    -0.00000
 Feature   EFS_by	Qe
 Feature   mindist	5.318802
END_CFG

BEGIN_CFG
 Size
    1
 Supercell
         2.303109      2.303109      2.303109
        -2.303109      2.303109      2.303109
        -2.303109     -2.303109      2.303109
 AtomData:  id type       cartes_x      cartes_y      cartes_z           fx          fy          fz
             1    0       0.000000      0.000000      0.000000     0.000000    0.000000    0.000000
 Energy
        -13.890920855700
 PlusStress:  xx          yy          zz          yz          xz          xy
         0.68479     0.68479     0.68479     0.00000     0.00000     0.00000
 Feature   EFS_by	Qe
 Feature   mindist	3.989102
END_CFG

BEGIN_CFG
 Size
    1
 Supercell
         1.791307      1.791307      1.791307
        -1.791307      1.791307      1.791307
        -1.791307     -1.791307      1.791307
 AtomData:  id type       cartes_x      cartes_y      cartes_z           fx          fy          fz
             1    0       0.000000      0.000000      0.000000     0.000000    0.000000    0.000000
 Energy
        -12.207250903900
 PlusStress:  xx          yy          zz          yz          xz          xy
         4.02624     4.02624     4.02624     0.00000     0.00000     0.00000
 Feature   EFS_by	Qe
 Feature   mindist	3.102635
END_CFG

BEGIN_CFG
 Size
    1
 Supercell
         2.559015      5.885724      5.885724
        -2.559006      2.559024      2.559006
        -2.558998     -2.559024      2.559015
 AtomData:  id type       cartes_x      cartes_y      cartes_z           fx          fy          fz
             1    0       0.000000      0.000000      0.000000     0.000000    0.000000    0.000000
 Energy
        -13.768395875700
 PlusStress:  xx          yy          zz          yz          xz          xy
        -0.21072    -0.23966    -0.20320     0.00000    -0.21498    -0.00823
 Feature   EFS_by	Qe
 Feature   mindist	4.432339
END_CFG

BEGIN_CFG
 Size
    1
 Supercell
         2.559010      2.559010      2.559010
        -2.559006      2.559023      2.559006
        -2.559001     -2.559028      2.559010
 AtomData:  id type       cartes_x      cartes_y      cartes_z           fx          fy          fz
             1    0       0.000000      0.000000      0.000000     0.000000    0.000000    0.000000
 Energy
        -13.988892185700
 PlusStress:  xx          yy          zz          yz          xz          xy
        -0.00302    -0.00302    -0.00302     0.00006     0.00000    -0.00000
 Feature   EFS_by	Qe
 Feature   mindist	4.432335
END_CFG

BEGIN_CFG
 Size
    1
 Supercell
         2.379879      2.379879      2.379879
        -2.379879      2.379879      2.379879
        -2.379879     -2.379879      2.379879
 AtomData:  id type       cartes_x      cartes_y      cartes_z           fx          fy          fz
             1    0       0.000000      0.000000      0.000000     0.000000    0.000000    0.000000
 Energy
        -13.945377914100
 PlusStress:  xx          yy          zz          yz          xz          xy
         0.43019     0.43019     0.43019     0.00000     0.00000     0.00000
 Feature   EFS_by	Qe
 Feature   mindist	4.122072
END_CFG

BEGIN_CFG
 Size
    1
 Supercell
         2.559008      6.909333      6.909333
        -2.559008      2.559018      2.559008
        -2.558998     -2.559028      2.559008
 AtomData:  id type       cartes_x      cartes_y      cartes_z           fx          fy          fz
             1    0       0.000000      0.000000      0.000000     0.000000    0.000000    0.000000
 Energy
        -13.728635686900
 PlusStress:  xx          yy          zz          yz          xz          xy
        -0.11101    -0.26415    -0.11488    -0.00239    -0.13663    -0.00387
 Feature   EFS_by	Qe
 Feature   mindist	4.432338
END_CFG

BEGIN_CFG
 Size
    1
 Supercell
         2.559009      3.710568      3.710568
        -2.559003      2.559021      2.559009
        -2.559003     -2.559027      2.559009
 AtomData:  id type       cartes_x      cartes_y      cartes_z           fx          fy          fz
             1    0       0.000000      0.000000      0.000000     0.000000    0.000000    0.000000
 Energy
        -13.918388028700
 PlusStress:  xx          yy          zz          yz          xz          xy
        -0.25656    -0.22859    -0.19610    -0.08550    -0.18667    -0.02918
 Feature   EFS_by	Qe
 Feature   mindist	4.432337
END_CFG

BEGIN_CFG
 Size
    1
 Supercell
         2.559008      3.326714      3.326714
        -2.559003      2.559019      2.559008
        -2.559003     -2.559024      2.559014
 AtomData:  id type       cartes_x      cartes_y      cartes_z           fx          fy          fz
             1    0       0.000000      0.000000      0.000000     0.000000    0.000000    0.000000
 Energy
        -13.950350658800
 PlusStress:  xx          yy          zz          yz          xz          xy
        -0.18664    -0.19428    -0.15953    -0.11048    -0.15422    -0.06872
 Feature   EFS_by	Qe
 Feature   mindist	4.432336
END_CFG

BEGIN_CFG
 Size
    2
 Supercell
         3.070812      3.070812      3.070812
        -3.070812      3.070812      3.070812
        -3.070812     -3.070812      3.070812
 AtomData:  id type       cartes_x      cartes_y      cartes_z           fx          fy          fz
             1    0       0.000000      0.000000      0.000000    -0.280082    0.280082   -0.024133
             2    0      -1.013368      1.013368      3.040105     0.280082   -0.280082    0.024133
 Energy
        -27.057303591900
 PlusStress:  xx          yy          zz          yz          xz          xy
         0.38637     0.38637     1.63800     0.05902    -0.05902    -1.49826
 Feature   EFS_by	Qe
 Feature   mindist	2.909826
END_CFG

BEGIN_CFG
 Size
    1
 Supercell
         2.175158      2.175158      2.175158
        -2.175158      2.175158      2.175158
        -2.175158     -2.175158      2.175158
 AtomData:  id type       cartes_x      cartes_y      cartes_z           fx          fy          fz
             1    0       0.000000      0.000000      0.000000     0.000000    0.000000    0.000000
 Energy
        -13.728188467800
 PlusStress:  xx          yy          zz          yz          xz          xy
         1.24036     1.24036     1.24036     0.00000     0.00000    -0.00000
 Feature   EFS_by	Qe
 Feature   mindist	3.767485
END_CFG

BEGIN_CFG
 Size
    1
 Supercell
         3.454663      3.454663      3.454663
        -3.454663      3.454663      3.454663
        -3.454663     -3.454663      3.454663
 AtomData:  id type       cartes_x      cartes_y      cartes_z           fx          fy          fz
             1    0       0.000000      0.000000      0.000000     0.000000    0.000000    0.000000
 Energy
        -13.584802967200
 PlusStress:  xx          yy          zz          yz          xz          xy
        -0.66490    -0.66490    -0.66490    -0.00000    -0.00000    -0.00000
 Feature   EFS_by	Qe
 Feature   mindist	5.983652
END_CFG

BEGIN_CFG
 Size
    2
 Supercell
         3.454663      3.454663      3.454663
        -3.454663      3.454663      3.454663
        -3.454663     -3.454663      3.454663
 AtomData:  id type       cartes_x      cartes_y      cartes_z           fx          fy          fz
             1    0       0.000000      0.000000      0.000000    -0.292117    0.292117   -0.020251
             2    0      -1.140039      1.140039      3.420118     0.292117   -0.292117    0.020251
 Energy
        -27.233414049500
 PlusStress:  xx          yy          zz          yz          xz          xy
        -0.00454    -0.00454     0.66899     0.05103    -0.05103    -1.28498
 Feature   EFS_by	Qe
 Feature   mindist	3.273555
END_CFG

BEGIN_CFG
 Size
    1
 Supercell
         2.431059      2.431059      2.431059
        -2.431059      2.431059      2.431059
        -2.431059     -2.431059      2.431059
 AtomData:  id type       cartes_x      cartes_y      cartes_z           fx          fy          fz
             1    0       0.000000      0.000000      0.000000     0.000000    0.000000    0.000000
 Energy
        -13.968138333700
 PlusStress:  xx          yy          zz          yz          xz          xy
         0.28621     0.28621     0.28621     0.00000     0.00000    -0.00000
 Feature   EFS_by	Qe
 Feature   mindist	4.210718
END_CFG

BEGIN_CFG
 Size
    1
 Supercell
         2.533420      2.533420      2.533420
        -2.533420      2.533420      2.533420
        -2.533420     -2.533420      2.533420
 AtomData:  id type       cartes_x      cartes_y      cartes_z           fx          fy          fz
             1    0       0.000000      0.000000      0.000000     0.000000    0.000000    0.000000
 Energy
        -13.988238024000
 PlusStress:  xx          yy          zz          yz          xz          xy
         0.04771     0.04771     0.04771     0.00000     0.00000    -0.00000
 Feature   EFS_by	Qe
 Feature   mindist	4.388012
END_CFG

BEGIN_CFG
 Size
    1
 Supercell
         2.584600      2.584600      2.584600
        -2.584600      2.584600      2.584600
        -2.584600     -2.584600      2.584600
 AtomData:  id type       cartes_x      cartes_y      cartes_z           fx          fy          fz
             1    0       0.000000      0.000000      0.000000     0.000000    0.000000    0.000000
 Energy
        -13.988068769200
 PlusStress:  xx          yy          zz          yz          xz          xy
        -0.05079    -0.05079    -0.05079     0.00000    -0.00000    -0.00000
 Feature   EFS_by	Qe
 Feature   mindist	4.476658
END_CFG

BEGIN_CFG
 Size
    1
 Supercell
         2.559014      6.141625      6.141625
        -2.559005      2.559023      2.559005
        -2.559005     -2.559023      2.559014
 AtomData:  id type       cartes_x      cartes_y      cartes_z           fx          fy          fz
             1    0       0.000000      0.000000      0.000000     0.000000    0.000000    0.000000
 Energy
        -13.756202997900
 PlusStress:  xx          yy          zz          yz          xz          xy
        -0.18425    -0.24420    -0.18362    -0.00178    -0.19461    -0.00806
 Feature   EFS_by	Qe
 Feature   mindist	4.432336
END_CFG

BEGIN_CFG
 Size
    2
 Supercell
         2.175158      2.175158      2.175158
        -2.175158      2.175158      2.175158
        -2.175158     -2.175158      2.175158
 AtomData:  id type       cartes_x      cartes_y      cartes_z           fx          fy          fz
             1    0       0.000000      0.000000      0.000000     0.410212   -0.410212    0.034150
             2    0      -0.717803      0.717803      2.153408    -0.410212    0.410212   -0.034150
 Energy
        -25.091386667800
 PlusStress:  xx          yy          zz          yz          xz          xy
         3.32366     3.32366     1.43101    -0.04675     0.04675     1.10687
 Feature   EFS_by	Qe
 Feature   mindist	2.061127
END_CFG

BEGIN_CFG
 Size
    1
 Supercell
         2.559014      7.421131      7.421131
        -2.559004      2.559025      2.559004
        -2.559004     -2.559025      2.559014
 AtomData:  id type       cartes_x      cartes_y      cartes_z           fx          fy          fz
             1    0       0.000000      0.000000      0.000000     0.000000    0.000000    0.000000
 Energy
        -13.717132481700
 PlusStress:  xx          yy          zz          yz          xz          xy
        -0.07117    -0.27675    -0.07237    -0.00072    -0.10309    -0.00084
 Feature   EFS_by	Qe
 Feature   mindist	4.432337
END_CFG

BEGIN_CFG
 Size
    1
 Supercell
         1.663356      1.663356      1.663356
        -1.663356      1.663356      1.663356
        -1.663356     -1.663356      1.663356
 AtomData:  id type       cartes_x      cartes_y      cartes_z           fx          fy          fz
             1    0       0.000000      0.000000      0.000000     0.000000    0.000000    0.000000
 Energy
        -11.266680094100
 PlusStress:  xx          yy          zz          yz          xz          xy
         4.20529     4.20529     4.20529     0.00000     0.00000     0.00000
 Feature   EFS_by	Qe
 Feature   mindist	2.881018
END_CFG

BEGIN_CFG
 Size
    2
 Supercell
         2.686960      2.686960      2.686960
        -2.686960      2.686960      2.686960
        -2.686960     -2.686960      2.686960
 AtomData:  id type       cartes_x      cartes_y      cartes_z           fx          fy          fz
             1    0       0.000000      0.000000      0.000000    -0.098475    0.098475   -0.012859
             2    0      -0.886697      0.886697      2.660092     0.098475   -0.098475    0.012859
 Energy
        -26.571157078200
 PlusStress:  xx          yy          zz          yz          xz          xy
         1.22151     1.22151     2.52781     0.03327    -0.03327    -0.96731
 Feature   EFS_by	Qe
 Feature   mindist	2.546098
END_CFG

BEGIN_CFG
 Size
    1
 Supercell
         2.559014      7.677031      7.677031
        -2.559003      2.559025      2.559003
        -2.559003     -2.559025      2.559014
 AtomData:  id type       cartes_x      cartes_y      cartes_z           fx          fy          fz
             1    0       0.000000      0.000000      0.000000     0.000000    0.000000    0.000000
 Energy
        -13.713042202200
 PlusStress:  xx          yy          zz          yz          xz          xy
        -0.05453    -0.28163    -0.05453    -0.00000    -0.08838    -0.00000
 Feature   EFS_by	Qe
 Feature   mindist	4.432336
END_CFG

BEGIN_CFG
 Size
    1
 Supercell
         2.559011      4.094420      4.094420
        -2.559004      2.559023      2.559004
        -2.558998     -2.559030      2.559011
 AtomData:  id type       cartes_x      cartes_y      cartes_z           fx          fy          fz
             1    0       0.000000      0.000000      0.000000     0.000000    0.000000    0.000000
 Energy
        -13.888306385700
 PlusStress:  xx          yy          zz          yz          xz          xy
        -0.30603    -0.23755    -0.22355    -0.05161    -0.23099    -0.01112
 Feature   EFS_by	Qe
 Feature   mindist	4.432337
END_CFG

BEGIN_CFG
 Size
    2
 Supercell
         2.047208      2.047208      2.047208
        -2.047208      2.047208      2.047208
        -2.047208     -2.047208      2.047208
 AtomData:  id type       cartes_x      cartes_y      cartes_z           fx          fy          fz
             1    0       0.000000      0.000000      0.000000     0.672670   -0.672670    0.066606
             2    0      -0.675579      0.675579      2.026737    -0.672670    0.672670   -0.066606
 Energy
        -24.646591664800
 PlusStress:  xx          yy          zz          yz          xz          xy
         3.06083     3.06083     0.35557    -0.06652     0.06652     1.82140
 Feature   EFS_by	Qe
 Feature   mindist	1.939884
END_CFG

BEGIN_CFG
 Size
    1
 Supercell
         2.559011      7.165232      7.165232
        -2.559011      2.559021      2.559011
        -2.559000     -2.559031      2.559011
 AtomData:  id type       cartes_x      cartes_y      cartes_z           fx          fy          fz
             1    0       0.000000      0.000000      0.000000     0.000000    0.000000    0.000000
 Energy
        -13.722275977800
 PlusStress:  xx          yy          zz          yz          xz          xy
        -0.09004    -0.27082    -0.09261    -0.00164    -0.11916    -0.00222
 Feature   EFS_by	Qe
 Feature   mindist	4.432342
END_CFG

BEGIN_CFG
 Size
    2
 Supercell
         2.559011      2.559011      2.559011
        -2.559015      2.559015      2.559015
        -2.559015     -2.559015      2.559015
 AtomData:  id type       cartes_x      cartes_y      cartes_z           fx          fy          fz
             1    0       0.000000      0.000000      0.000000    -0.000496    0.000472   -0.005167
             2    0      -0.844475      0.844474      2.533424     0.000496   -0.000472    0.005167
 Energy
        -26.302524370600
 PlusStress:  xx          yy          zz          yz          xz          xy
         1.71108     1.71108     2.62780     0.01576    -0.01576    -0.55729
 Feature   EFS_by	Qe
 Feature   mindist	2.424862
END_CFG

BEGIN_CFG
 Size
    1
 Supercell
         2.559009      4.478269      4.478269
        -2.559009      2.559023      2.559009
        -2.559002     -2.559029      2.559009
 AtomData:  id type       cartes_x      cartes_y      cartes_z           fx          fy          fz
             1    0       0.000000      0.000000      0.000000     0.000000    0.000000    0.000000
 Energy
        -13.858764616600
 PlusStress:  xx          yy          zz          yz          xz          xy
        -0.31751    -0.24177    -0.23805    -0.02708    -0.25895    -0.00795
 Feature   EFS_by	Qe
 Feature   mindist	4.432341
END_CFG

BEGIN_CFG
 Size
    1
 Supercell
         2.635780      2.635780      2.635780
        -2.635780      2.635780      2.635780
        -2.635780     -2.635780      2.635780
 AtomData:  id type       cartes_x      cartes_y      cartes_z           fx          fy          fz
             1    0       0.000000      0.000000      0.000000     0.000000    0.000000    0.000000
 Energy
        -13.982450570400
 PlusStress:  xx          yy          zz          yz          xz          xy
        -0.13787    -0.13787    -0.13787    -0.00000     0.00000    -0.00000
 Feature   EFS_by	Qe
 Feature   mindist	4.565305
END_CFG

BEGIN_CFG
 Size
    2
 Supercell
         2.431059      2.431059      2.431059
        -2.431059      2.431059      2.431059
        -2.431059     -2.431059      2.431059
 AtomData:  id type       cartes_x      cartes_y      cartes_z           fx          fy          fz
             1    0       0.000000      0.000000      0.000000     0.117700   -0.117700    0.003871
             2    0      -0.802250      0.802250      2.406750    -0.117700    0.117700   -0.003871
 Energy
        -25.962868040600
 PlusStress:  xx          yy          zz          yz          xz          xy
         2.31664     2.31664     2.53615    -0.00459     0.00459    -0.04332
 Feature   EFS_by	Qe
 Feature   mindist	2.303613
END_CFG

BEGIN_CFG
 Size
    1
 Supercell
         2.891681      2.891681      2.891681
        -2.891681      2.891681      2.891681
        -2.891681     -2.891681      2.891681
 AtomData:  id type       cartes_x      cartes_y      cartes_z           fx          fy          fz
             1    0       0.000000      0.000000      0.000000     0.000000    0.000000    0.000000
 Energy
        -13.898017993300
 PlusStress:  xx          yy          zz          yz          xz          xy
        -0.44109    -0.44109    -0.44109     0.00000    -0.00000     0.00000
 Feature   EFS_by	Qe
 Feature   mindist	5.008539
END_CFG

BEGIN_CFG
 Size
    2
 Supercell
         2.533420      2.533420      2.533420
        -2.533420      2.533420      2.533420
        -2.533420     -2.533420      2.533420
 AtomData:  id type       cartes_x      cartes_y      cartes_z           fx          fy          fz
             1    0       0.000000      0.000000      0.000000     0.021379   -0.021379   -0.003442
             2    0      -0.836029      0.836029      2.508087    -0.021379    0.021379    0.003442
 Energy
        -26.240568398400
 PlusStress:  xx          yy          zz          yz          xz          xy
         1.82513     1.82513     2.62648     0.01188    -0.01188    -0.46167
 Feature   EFS_by	Qe
 Feature   mindist	2.400607
END_CFG

BEGIN_CFG
 Size
    2
 Supercell
         2.789321      2.789321      2.789321
        -2.789321      2.789321      2.789321
        -2.789321     -2.789321      2.789321
 AtomData:  id type       cartes_x      cartes_y      cartes_z           fx          fy          fz
             1    0       0.000000      0.000000      0.000000    -0.163612    0.163612   -0.017823
             2    0      -0.920476      0.920476      2.761429     0.163612   -0.163612    0.017823
 Energy
        -26.742370302700
 PlusStress:  xx          yy          zz          yz          xz          xy
         0.92280     0.92280     2.34708     0.04431    -0.04431    -1.20893
 Feature   EFS_by	Qe
 Feature   mindist	2.643092
END_CFG

BEGIN_CFG
 Size
    1
 Supercell
         2.559009      4.222369      4.222369
        -2.559009      2.559022      2.559009
        -2.559002     -2.559028      2.559009
 AtomData:  id type       cartes_x      cartes_y      cartes_z           fx          fy          fz
             1    0       0.000000      0.000000      0.000000     0.000000    0.000000    0.000000
 Energy
        -13.878379944200
 PlusStress:  xx          yy          zz          yz          xz          xy
        -0.31486    -0.24032    -0.22833    -0.04224    -0.24350    -0.00905
 Feature   EFS_by	Qe
 Feature   mindist	4.432341
END_CFG

BEGIN_CFG
 Size
    1
 Supercell
         2.942861      2.942861      2.942861
        -2.942861      2.942861      2.942861
        -2.942861     -2.942861      2.942861
 AtomData:  id type       cartes_x      cartes_y      cartes_z           fx          fy          fz
             1    0       0.000000      0.000000      0.000000     0.000000    0.000000    0.000000
 Energy
        -13.873664075000
 PlusStress:  xx          yy          zz          yz          xz          xy
        -0.48168    -0.48168    -0.48168    -0.00000    -0.00000     0.00000
 Feature   EFS_by	Qe
 Feature   mindist	5.097185
END_CFG

BEGIN_CFG
 Size
    1
 Supercell
         3.198762      3.198762      3.198762
        -3.198762      3.198762      3.198762
        -3.198762     -3.198762      3.198762
 AtomData:  id type       cartes_x      cartes_y      cartes_z           fx          fy          fz
             1    0       0.000000      0.000000      0.000000     0.000000    0.000000    0.000000
 Energy
        -13.734272797700
 PlusStress:  xx          yy          zz          yz          xz          xy
        -0.61461    -0.61461    -0.61461    -0.00000    -0.00000    -0.00000
 Feature   EFS_by	Qe
 Feature   mindist	5.540419
END_CFG

BEGIN_CFG
 Size
    1
 Supercell
         2.277519      2.277519      2.277519
        -2.277519      2.277519      2.277519
        -2.277519     -2.277519      2.277519
 AtomData:  id type       cartes_x      cartes_y      cartes_z           fx          fy          fz
             1    0       0.000000      0.000000      0.000000     0.000000    0.000000    0.000000
 Energy
        -13.866372239800
 PlusStress:  xx          yy          zz          yz          xz          xy
         0.78136     0.78136     0.78136     0.00000     0.00000     0.00000
 Feature   EFS_by	Qe
 Feature   mindist	3.944778
END_CFG

BEGIN_CFG
 Size
    2
 Supercell
         2.226339      2.226339      2.226339
        -2.226339      2.226339      2.226339
        -2.226339     -2.226339      2.226339
 AtomData:  id type       cartes_x      cartes_y      cartes_z           fx          fy          fz
             1    0       0.000000      0.000000      0.000000     0.341527   -0.341527    0.024638